composition,Eg (eV)
K2Cd3Te4,2.26
Pb0.97Se0.97Sn0.03Se0.03,0.21
EuYb2Se4,1.3
SbSeI,1.66
Mg2Sn,0.32
Rb2CsSb,1.5
TlTiPS5,1.3
Na3Sb,1.1
Tl2InGaSe4,2.05
CsSb,0.8
Ir0.67Se2,0.45
BiSBr,1.92
CuSbSe2,1.05
Pr2Te3,1.3
Cu0.35Ga1.65S2.65,2.57
HgSe,0.1
Zn0.5Hg0.5Se,0.75
DyN,2.6
La3LuSe6,1.26
Tl2Te3,0.2
UP2S9,1.41
Hg3PS3,1.98
CdIO4H,4.35
SmCuOS,2.9
AlP,3.62
SnSe,0.88
As2S3,2.35
Ca2SnS4,2.32
AsSI,2.05
NaSb,0.82
NaAsSe2,1.46
Sm2Te3,0.7
Zn0.43Cd0.57Se,2.8
LaH2NO5,4.76
Sr3BiP3O12,4.0
Rb4GeP4Se12,2.0
YbIn3S6,1.31
Ag8GeS6,1.18
Pb2Nb2Se4O15,2.79
KTa3Te2O12,4.06
Hg8As4Bi3Cl13,2.43
Na2Hg3S2.51Se1.49,2.03
K3CdB5O10,3.47
RbBr,7.2
Cu2CdGeS4,2.05
Mg2Sn,0.36
K2AuI5O15,2.65
NbIrSn,0.28
Pb0.85Sn0.15Te,0.13
Hg7.5As4Cl6,1.73
RbCdB3O6,4.2
InSe,1.34
LiSm3SiS7,2.83
CsInSnS4,2.9
Rb3Nb2AsSe11,1.5
TlSbS2,1.92
GaS,2.6
RuSb2,0.3
Li2GaGe2Se6,2.64
AlP,3.1
Ag0.1Cd0.8In2.1Te4,0.29
Sb2Se3,1.3
CdS,2.44
AgBiSe2,0.34
CsInS2,3.4
Ba2GaBiTe5,1.43
ZnIn2S4,2.8
Cu0.2Ga1.8Se2.8,1.86
Rb2CdP2Se6,2.58
Bi2Te1.5Se1.5,0.29
Na2In4SSe6,1.92
RbSbTe2,0.38
Cu4Sn7S16,0.8
ZnTe,2.2
CdGa2Se4,2.75
AgAsS2,2.26
TaGaS2,2.45
Mg2Si,2.27
Cu0.5Ga1.5Se2.5,1.76
KIO3,3.83
Zn3B2O6,2.6
RbNb3Te2O12,3.49
CdIn2S4,2.7
AlSb,1.52
K2Se,1.8
Hg6.5As4CdCl6,2.05
CuGa3Se5,1.89
Hg0.77Cd0.23Te,0.21
Pb0.9Se0.9Ge0.1S0.1,0.32
CdTeO3,3.91
RhS3,1.5
ZnS,3.56
LiGaTe2,2.31
LiAsSe2,1.1
As2S3,2.06
K2CuVS4,1.82
Mg2GeSe4,2.02
CdS,2.59
TlInS2,2.2
BiFeSe3O9,2.54
SbSeBr,1.87
GeTe2,0.3
NiO,4.0
CdIn2S4,2.3
CsBiSe2,1.07
Cu0.5In1.5Se2.5,1.24
PdPS,1.4
HgPS3,2.6
CdIn8Te13,1.02
Cu3HoSe3,0.16
BiOI,1.89
SnS0.01Se0.99,0.95
CrO2,0.23
Pb0.98Se0.98Bi0.04Te0.06,0.28
Pd3P2S8,2.12
BaTiO3,3.1
ErN,3.0
AlSb,1.68
PdI2O6,1.31
Er3SmSe6,2.0
Cu0.9Ga1.1Se2.1,1.59
NdF3,6.15
LiCa3As2H,1.4
Pb0.8Sn0.2Se,0.06
La2Se3,1.65
GdN,1.54
UY4O3S5,1.95
Ba3B1.5S6Sb0.5,3.01
As2S3,2.21
SiSe2,1.72
Pb0.94Sn0.06Se,0.17
Ba2ZnTe3,2.1
RbInS2,3.3
Sb2Te3,0.35
BaGa2SnSe6,1.6
GeS2,3.43
In0.4As0.4Ga0.6P0.6,1.85
Hg0.99Cd0.01Se,1.72
PbTe0.99Se0.01,0.3
PrTe2,1.29
CsI,6.37
Li6Mo6Se6O33,3.3
K2Te,1.9
Cs2Al2B2O7,4.13
Ag2GeS3,1.98
OsP4,0.4
K2CdP2Se6,2.58
KBi3S5,1.21
Hg0.06Zn0.94Te,2.03
Ca2SmTaO6,3.45
In2O3,2.8
Na2Nb4Se4O19,3.56
Cs2Bi2Cd2S5,1.7
Cr3Se4,1.59
Pb0.99Sn0.01Se,0.22
ZnAs2,1.2
EuSb2Se4,0.95
Pb0.93TeIn0.07,0.32
Pb0.999Sn0.001Te,0.21
Sb2Se3,1.0
Na3Sn2F6Cl,3.88
SnI4,2.38
Al2Te3,2.2
CsNbSe2O7,4.2
Ga0.99Sb0.99Cd0.01Te0.01,0.72
LiCsCO3,6.19
Ba4Sb3S8Cl,2.09
Bi14.7In11.3S38,1.45
ZnTe,2.35
HgIn2Te4,0.86
CdSiAs2,1.52
Pb0.61Ge0.39Te,0.56
InSe,1.25
CoSb3,0.5
PdPSe,0.15
KCl,8.5
K8Zr6Se30,1.81
La2O2FeSe2,0.7
Ba3Ta2Se9,1.6
ZnSnAs2,0.66
EuSb4Te7,0.54
Cs2HgI2Cl2,2.15
PbTe,0.25
TlPS2,1.6
ZnAs2,1.3
ZnIn2S4,2.9
Bi12SiO20,3.2
KInSe2,2.68
Ag3AsSe3,2.1
RbCl,8.3
GaAs,1.4
Ag2SnS3,1.37
BaTe,3.4
Rh0.67Se2,0.7
Ba2B6O9(OH)4,6.53
Nd4InSbSe9,1.57
Na2CdGe2S6,3.21
NH6PO4,6.8
HgGa2S4,2.79
Cd3As2,0.17
CaF2,9.92
CuIn3S5,1.2
TlCr5SSe7,0.71
BiSeBr,1.96
K3Cu3Th2S7,2.49
CuGaS2,2.5
TlSe,0.74
ZnS,3.63
CdSb,0.48
Ga0.3P0.3Zn0.7Se0.7,2.15
NiP2,0.5
Ba4Ga4SnSe12,2.16
InSe,1.17
CaF2,10.0
CuCl,3.21
V3As2O9,0.76
CsRbP2Se8,2.41
Pb2V3Se5O18,3.14
Gd2Mn4S7,1.44
ZnIn2S4,2.99
La2MoO5,1.0
BaZnSiSe4,2.71
Cd3P2,0.55
Tl4Nb2S11,1.8
CdO,2.3
OsTe2,0.3
CdIn2S4,2.6
InP,1.26
PbI2,2.32
LiZnN,1.91
CsBi3Se5,0.43
CdIn2Te4,1.12
Co2Te3O8,3.6
Ga0.8Sb0.8Cd0.2Te0.2,0.8
K8Ga8Si38,1.18
La3Te4,0.43
Rh2S3,0.8
TlSe,0.67
CdP2,2.15
Ga1.005Sb0.995Te0.015,0.68
Bi5O7I,2.76
NaI,5.89
Rb2TiCu2S4,2.19
LiAlB14,1.82
Ba3Sn0.87Bi2.13Se8,0.79
CsCd4Ga5Te12,1.67
InAsI,0.41
SiAs,1.45
Na2Mo2Se2O11,3.1
SnS,1.07
UO,1.5
Ba7AgGa5S15,2.6
NaIn3Se5,2.17
CuFeS2,0.43
In0.4Ga0.6P,2.05
Pb0.9Ge0.1Se,0.3
LiInSnS4,2.3
AgGaSiSe4,2.63
Cs2MgGe3Se8,2.04
TlBr,2.67
La5Cu6.33O4S7,2.0
Sb2Te3,0.24
CuP2,1.51
RbI,5.83
RuP4,0.38
Sn0.5GaZn4.5O7,3.0
SnS0.99Se0.01,1.08
Li2CdGeS4,3.1
LiKCO3,6.32
Al2S3,4.1
CsCaBO3,3.93
InSb2S4Br,1.8
BaO,4.8
CBr4,3.7
PrSb,0.66
AgBiP2Se6,1.4
SiAs,1.48
BiSe,0.4
Er2O3,5.42
Ba2Cu2ThSe5,1.75
OsAs2,0.9
HgGa2S4,2.84
HoN,1.79
AgGaGe3Se8,2.17
KBr,7.6
BiOBr,2.92
CsMn4In5Te12,1.48
K3SmAs2S8,2.2
Ag3SbS3,1.75
As2S3,2.0
GaS,2.52
GaSe,2.05
Ge0.653Si0.347,1.91
Ho2Mo3O12,1.68
Cu2Te,1.02
ZnTe,2.24
AgBiS2,0.9
TlSe,0.71
ReS2,1.1
Tl2PrInSe4,0.93
BeTe,2.89
CdSiP2,2.1
Pr2S3,2.6
Sr2V3Se5O18,2.47
LiSbS2,1.36
V2O5,2.3
CuInS2,1.55
IrAs2,1.0
PbTe0.5Se0.5,0.29
Cu2Ta4O11,2.7
AgPdI3O9,1.5
Bi2Mo3O12,2.9
EuCu2SnS4,1.85
GaSe,2.16
La2CoTiO6,1.02
Zn3As2,1.11
TcS2,1.0
Ag2S,1.0
AgGaSe2,1.65
CdGa2Se4,2.27
CdGa2Se4,2.5
CdSb,0.49
ZnSe,2.76