Unnamed: 0,Material Composition,A site #1,A site #2,A site #3,B site #1,B site #2,B site #3,X site,Number of elements,energy_above_hull (meV/atom),formation_energy (eV/atom)
0,Ba1Sr7V8O24,Ba,Sr,,V,,,O,4,29.74770732,-2.113334555
1,Ba2Bi2Pr4Co8O24,Ba,Bi,Pr,Co,,,O,5,106.702335,-1.311862585
2,Ba2Ca6Fe8O24,Ba,Ca,,Fe,,,O,4,171.6080933,-1.435607274
4,Ba2Dy6Fe8O24,Ba,Dy,,Fe,,,O,4,270.00791289999995,-1.746806189
6,Ba2Ho6Fe8O24,Ba,Ho,,Fe,,,O,4,291.384616,-1.730646902
7,Ba2La6Co8O24,Ba,La,,Co,,,O,4,59.63498938,-1.663537668
8,Ba2La6Cr8O24,Ba,La,,Cr,,,O,4,16.66840972,-2.244336479
9,Ba2La6Fe8O24,Ba,La,,Fe,,,O,4,0.0,-2.003512701
10,Ba2La6Ga8O24,Ba,La,,Ga,,,O,4,94.50620971,-2.142007386
11,Ba2La6Mn8O24,Ba,La,,Mn,,,O,4,43.36372073,-2.058584002
13,Ba2La6Sc8O24,Ba,La,,Sc,,,O,4,14.09444405,-3.002093623
14,Ba2La6Ti8O24,Ba,La,,Ti,,,O,4,14.81005156,-2.830398081
15,Ba2La6V8O24,Ba,La,,V,,,O,4,53.85203387,-2.352156953
16,Ba2Mg6Fe8O24,Ba,Mg,,Fe,,,O,4,515.8053305,-1.014907035
17,Ba2Nd6Fe8O24,Ba,Nd,,Fe,,,O,4,132.8149808,-1.819950909
18,Ba2Pr6Co8O24,Ba,Pr,,Co,,,O,4,62.49404951,-1.60742447
19,Ba2Pr6Cr8O24,Ba,Pr,,Cr,,,O,4,33.65498379,-2.125968031
20,Ba2Pr6Fe8O24,Ba,Pr,,Fe,,,O,4,58.88531967,-1.881720753
21,Ba2Pr6Ga8O24,Ba,Pr,,Ga,,,O,4,155.4650781,-2.022670188
22,Ba2Pr6Mn8O24,Ba,Pr,,Mn,,,O,4,51.30901636,-2.003141803
23,Ba2Pr6Ni8O24,Ba,Pr,,Ni,,,O,4,162.89217549999995,-1.281903845
24,Ba2Pr6Sc8O24,Ba,Pr,,Sc,,,O,4,65.98496318,-2.896167925
26,Ba2Pr6V8O24,Ba,Pr,,V,,,O,4,18.9735033,-2.282407505
27,Ba2Sm6Fe8O24,Ba,Sm,,Fe,,,O,4,178.2357388,-1.794980239
28,Ba2Sn2Pr4Ni8O24,Ba,Sn,Pr,Ni,,,O,5,276.3402685,-1.033511169
29,Ba2Sr6Co8O24,Ba,Sr,,Co,,,O,4,106.7457587,-1.210712992
30,Ba2Sr6Fe4Co4O24,Ba,Sr,,Fe,Co,,O,5,109.488956,-1.340597884
31,Ba2Sr6Fe4Ni4O24,Ba,Sr,,Fe,Ni,,O,5,183.2712842,-1.143708571
32,Ba2Sr6Fe6Co2O24,Ba,Sr,,Fe,Co,,O,5,105.7221796,-1.410678704
33,Ba2Sr6Fe6Ni2O24,Ba,Sr,,Fe,Ni,,O,5,135.9544601,-1.314627173
34,Ba2Sr6Fe7Co1O24,Ba,Sr,,Fe,Co,,O,5,113.0606437,-1.43325399
35,Ba2Sr6Fe7Ni1O24,Ba,Sr,,Fe,Ni,,O,5,110.2858358,-1.399373849
36,Ba2Sr6Fe8O24,Ba,Sr,,Fe,,,O,4,89.50296147,-1.479234775
37,Ba2Sr6Mn1Fe7O24,Ba,Sr,,Mn,Fe,,O,5,102.7754203,-1.49147175
38,Ba2Sr6Mn2Fe6O24,Ba,Sr,,Mn,Fe,,O,5,96.03603838,-1.519664725
40,Ba2Sr6Mn8O24,Ba,Sr,,Mn,,,O,4,113.8862036,-1.597024575
42,Ba2Sr6V8O24,Ba,Sr,,V,,,O,4,42.13350699,-2.100668277
43,Ba2Y6Co8O24,Ba,Y,,Co,,,O,4,113.4830544,-1.643965255
44,Ba2Y6Cr8O24,Ba,Y,,Cr,,,O,4,101.755733,-2.163963566
45,Ba2Y6Fe8O24,Ba,Y,,Fe,,,O,4,84.72896518,-1.913356538
46,Ba2Y6Ga8O24,Ba,Y,,Ga,,,O,4,184.3874048,-2.066766973
47,Ba2Y6Mn8O24,Ba,Y,,Mn,,,O,4,91.10598761,-2.029611338
48,Ba2Y6Ni8O24,Ba,Y,,Ni,,,O,4,152.5708865,-1.38114738
49,Ba2Y6Sc8O24,Ba,Y,,Sc,,,O,4,94.60256203,-2.93909071
50,Ba2Y6Ti8O24,Ba,Y,,Ti,,,O,4,66.50124863,-2.781746417
51,Ba2Y6V8O24,Ba,Y,,V,,,O,4,33.0048005,-2.36963354
52,Ba3Bi1Pr4Co8O24,Ba,Bi,Pr,Co,,,O,5,109.0334108,-1.3729612530000002
53,Ba3Bi4La1Fe8O24,Ba,Bi,La,Fe,,,O,5,171.95670269999997,-1.180790075
54,Ba3Cd1Pr4Ni8O24,Ba,Cd,Pr,Ni,,,O,5,257.0759627,-0.96739269
55,Ba3Cd4La1Fe8O24,Ba,Cd,La,Fe,,,O,5,258.6653096,-1.009429826
56,Ba3Sn1Pr4Ni8O24,Ba,Sn,Pr,Ni,,,O,5,263.83957480000004,-1.047629357
57,Ba3Sn4La1Fe8O24,Ba,Sn,La,Fe,,,O,5,285.9481644,-1.230692994
58,Ba3Sr3La2Mn1Fe7O24,Ba,Sr,La,Mn,Fe,,O,6,0.0,-2.224516947
59,Ba4Ba4Mn2Fe6O24,Ba,Ba,,Mn,Fe,,O,5,271.90659750000003,-0.931270106
60,Ba4Bi4Fe8O24,Ba,Bi,,Fe,,,O,4,187.39104630000003,-1.093093684
61,Ba4Bi4Zr7Fe1O24,Ba,Bi,,Zr,Fe,,O,5,138.8928547,-2.19333335
62,Ba4Ca4Co4Ni4O24,Ba,Ca,,Co,Ni,,O,5,296.0959131,-0.941303789
63,Ba4Ca4Co6Ni2O24,Ba,Ca,,Co,Ni,,O,5,247.6849749,-1.03976982
64,Ba4Ca4Co7Ni1O24,Ba,Ca,,Co,Ni,,O,5,212.7566308,-1.099725711
65,Ba4Ca4Fe1Co7O24,Ba,Ca,,Fe,Co,,O,5,187.8944086,-1.181993887
66,Ba4Ca4Fe1Ni7O24,Ba,Ca,,Fe,Ni,,O,5,332.2121369,-0.817964403
67,Ba4Ca4Fe2Co6O24,Ba,Ca,,Fe,Co,,O,5,205.5640304,-1.196702672
68,Ba4Ca4Fe2Ni6O24,Ba,Ca,,Fe,Ni,,O,5,317.3568714,-0.902576579
69,Ba4Ca4Fe8O24,Ba,Ca,,Fe,,,O,4,163.18574919999998,-1.413634135
70,Ba4Ca4Mn1Co7O24,Ba,Ca,,Mn,Co,,O,5,180.6609581,-1.206799362
71,Ba4Ca4Mn1Ni7O24,Ba,Ca,,Mn,Ni,,O,5,349.60540510000016,-0.823979378
72,Ba4Ca4Mn2Co6O24,Ba,Ca,,Mn,Co,,O,5,197.1241296,-1.240286623
73,Ba4Ca4Mn2Ni6O24,Ba,Ca,,Mn,Ni,,O,5,346.0879077,-0.920662029
74,Ba4Ca4Mn4Co4O24,Ba,Ca,,Mn,Co,,O,5,195.6727542,-1.340436893
75,Ba4Ca4Mn4Ni4O24,Ba,Ca,,Mn,Ni,,O,5,313.72288060000005,-1.122276581
76,Ba4Ca4Mn6Co2O24,Ba,Ca,,Mn,Co,,O,5,198.5926738,-1.432124414
77,Ba4Ca4Mn6Fe2O24,Ba,Ca,,Mn,Fe,,O,5,192.0104175,-1.503463485
78,Ba4Ca4Mn6Ni2O24,Ba,Ca,,Mn,Ni,,O,5,234.968862,-1.3456931330000002
79,Ba4Ca4Mn7Co1O24,Ba,Ca,,Mn,Co,,O,5,206.6101336,-1.471410675
80,Ba4Ca4Mn7Fe1O24,Ba,Ca,,Mn,Fe,,O,5,192.7127554,-1.51768646
81,Ba4Ca4Mn7Ni1O24,Ba,Ca,,Mn,Ni,,O,5,213.3332277,-1.439660034
82,Ba4Ca4Ni4Co4O24,Ba,Ca,,Ni,Co,,O,5,330.9399131,-0.906459789
83,Ba4Ca4Ni6Co2O24,Ba,Ca,,Ni,Co,,O,5,364.7071013,-0.822637508
84,Ba4Ca4Ni7Co1O24,Ba,Ca,,Ni,Co,,O,5,354.7377519,-0.779144367
85,Ba4Cd4Fe8O24,Ba,Cd,,Fe,,,O,4,278.9846652,-0.909699185
86,Ba4Cd4Hf1Zr6Fe1O24,Ba,Cd,,Zr,Fe,Hf,O,6,98.58075515,-2.235525477
87,Ba4Cd4Zr7Fe1O24,Ba,Cd,,Zr,Fe,,O,5,151.5536712,-2.164019601
89,Ba4Dy4Fe8O24,Ba,Dy,,Fe,,,O,4,236.1773154,-1.617726328
90,Ba4Dy4Mn8O24,Ba,Dy,,Mn,,,O,4,137.4087125,-1.853918878
91,Ba4Er4Mn8O24,Ba,Er,,Mn,,,O,4,150.9998764,-1.850509856
92,Ba4Gd4Co8O24,Ba,Gd,,Co,,,O,4,130.5973922,-1.453169088
93,Ba4Gd4Fe8O24,Ba,Gd,,Fe,,,O,4,108.6668547,-1.714409621
94,Ba4Gd4Mn8O24,Ba,Gd,,Mn,,,O,4,105.6931653,-1.838973671
95,Ba4Ho4Fe8O24,Ba,Ho,,Fe,,,O,4,254.2650505,-1.60510872
97,Ba4La1Mn8Zn3O24,Ba,La,Zn,Mn,,,O,5,244.5589337,-1.296833575
98,Ba4La1Zn3Co8O24,Ba,La,Zn,Co,,,O,5,259.7211261,-0.920564492
99,Ba4La1Zn3Fe8O24,Ba,La,Zn,Fe,,,O,5,253.5848549,-1.157166775
100,Ba4La1Zn3Ni8O24,Ba,La,Zn,Ni,,,O,5,0.0,-1.221324367
101,Ba4La4Co8O24,Ba,La,,Co,,,O,4,117.6505299,-1.463276636
102,Ba4La4Cr8O24,Ba,La,,Cr,,,O,4,62.16796594,-2.053322947
103,Ba4La4Fe6Co2O24,Ba,La,,Fe,Co,,O,5,106.616452,-1.678054099
104,Ba4La4Fe8O24,Ba,La,,Fe,,,O,4,3.608107346,-1.824342919
105,Ba4La4Ga8O24,Ba,La,,Ga,,,O,4,169.76938049999995,-1.931469354
106,Ba4La4Mn8O24,Ba,La,,Mn,,,O,4,78.00949578,-1.88783422
107,Ba4La4Ni8O24,Ba,La,,Ni,,,O,4,210.8089291,-1.115862261
108,Ba4La4Sc8O24,Ba,La,,Sc,,,O,4,42.29589311,-2.8062730910000004
109,Ba4La4Ti8O24,Ba,La,,Ti,,,O,4,13.80460838,-2.789404549
110,Ba4La4V8O24,Ba,La,,V,,,O,4,79.64651974,-2.233025421
111,Ba4Mg4Fe8O24,Ba,Mg,,Fe,,,O,4,408.4885862,-1.117797642
112,Ba4Nd4Fe8O24,Ba,Nd,,Fe,,,O,4,122.3896631,-1.680338308
113,Ba4Nd4Mn8O24,Ba,Nd,,Mn,,,O,4,93.96023403,-1.848628108
114,Ba4Pr4Co8O24,Ba,Pr,,Co,,,O,4,113.9014866,-1.431522921
115,Ba4Pr4Cr8O24,Ba,Pr,,Cr,,,O,4,100.4401946,-1.955067232
116,Ba4Pr4Fe8O24,Ba,Pr,,Fe,,,O,4,78.18172235,-1.716439704
117,Ba4Pr4Ga8O24,Ba,Pr,,Ga,,,O,4,234.8007094,-1.827519139
118,Ba4Pr4Hf4Co4O24,Ba,Pr,,Hf,Co,,O,5,99.7625282,-2.305075518
119,Ba4Pr4Hf4Fe4O24,Ba,Pr,,Hf,Fe,,O,5,0.0,-2.572224659
120,Ba4Pr4Hf4Ni4O24,Ba,Pr,,Hf,Ni,,O,5,230.9219046,-2.073805955
121,Ba4Pr4Hf6Co2O24,Ba,Pr,,Hf,Co,,O,5,48.46453063,-2.742728066
122,Ba4Pr4Hf6Fe2O24,Ba,Pr,,Hf,Fe,,O,5,139.7631331,-2.685304137
123,Ba4Pr4Hf6Ni2O24,Ba,Pr,,Hf,Ni,,O,5,140.5385504,-2.611074285
124,Ba4Pr4Hf7Co1O24,Ba,Pr,,Hf,Co,,O,5,185.5245423,-2.775608965
125,Ba4Pr4Hf7Fe1O24,Ba,Pr,,Hf,Fe,,O,5,197.2462569,-2.7638872510000003
126,Ba4Pr4Hf7Ni1O24,Ba,Pr,,Hf,Ni,,O,5,229.0646829,-2.732068825
127,Ba4Pr4Mn6Co2O24,Ba,Pr,,Mn,Co,,O,5,86.53565683,-1.7525659830000002
128,Ba4Pr4Mn6Cu2O24,Ba,Pr,,Mn,Cu,,O,5,132.10902430000002,-1.659871144
130,Ba4Pr4Mn6Ni2O24,Ba,Pr,,Mn,Ni,,O,5,112.573845,-1.676472702
132,Ba4Pr4Nb4Co4O24,Ba,Pr,,Nb,Co,,O,5,52.02867683,-2.18843454
133,Ba4Pr4Nb4Fe4O24,Ba,Pr,,Nb,Fe,,O,5,42.1689745,-2.257611932
134,Ba4Pr4Nb4Ni4O24,Ba,Pr,,Nb,Ni,,O,5,134.5064424,-2.015248478
135,Ba4Pr4Nb6Co2O24,Ba,Pr,,Nb,Co,,O,5,251.360287,-2.190301975
137,Ba4Pr4Nb6Ni2O24,Ba,Pr,,Nb,Ni,,O,5,321.9895748,-2.122467444
140,Ba4Pr4Ni8O24,Ba,Pr,,Ni,,,O,4,214.3641691,-1.077502796
141,Ba4Pr4Sc8O24,Ba,Pr,,Sc,,,O,4,94.30190586,-2.718243626
143,Ba4Pr4Ta4Fe4O24,Ba,Pr,,Ta,Fe,,O,5,31.5202492,-2.372322625
144,Ba4Pr4Ta4Ni4O24,Ba,Pr,,Ta,Ni,,O,5,139.3450813,-2.134894921
145,Ba4Pr4Ta6Co2O24,Ba,Pr,,Ta,Co,,O,5,294.4157031000001,-2.290383014
146,Ba4Pr4Ta6Fe2O24,Ba,Pr,,Ta,Fe,,O,5,281.1024426,-2.300012335
147,Ba4Pr4Ta6Ni2O24,Ba,Pr,,Ta,Ni,,O,5,367.6244316,-2.222287483
148,Ba4Pr4Ta7Co1O24,Ba,Pr,,Ta,Co,,O,5,280.87646980000005,-2.309389655
149,Ba4Pr4Ta7Fe1O24,Ba,Pr,,Ta,Fe,,O,5,286.014919,-2.29652069
150,Ba4Pr4Ta7Ni1O24,Ba,Pr,,Ta,Ni,,O,5,299.6924848000001,-2.291491514
151,Ba4Pr4Ti8O24,Ba,Pr,,Ti,,,O,4,11.5904985,-2.738592833
152,Ba4Pr4V8O24,Ba,Pr,,V,,,O,4,57.14438148,-2.189203706
153,Ba4Pr4Zr4Co4O24,Ba,Pr,,Zr,Co,,O,5,77.8684422,-2.252837764
154,Ba4Pr4Zr4Fe4O24,Ba,Pr,,Zr,Fe,,O,5,126.7773445,-2.350017906
155,Ba4Pr4Zr4Ni4O24,Ba,Pr,,Zr,Ni,,O,5,199.6845686,-2.030911452
157,Ba4Pr4Zr6Fe2O24,Ba,Pr,,Zr,Fe,,O,5,202.2839484,-2.532370382
159,Ba4Pr4Zr7Co1O24,Ba,Pr,,Zr,Co,,O,5,165.7784332,-2.696801584
160,Ba4Pr4Zr7Fe1O24,Ba,Pr,,Zr,Fe,,O,5,175.56939780000005,-2.68701062
161,Ba4Pr4Zr7Ni1O24,Ba,Pr,,Zr,Ni,,O,5,211.4768238,-2.651103194
162,Ba4Sm4Fe8O24,Ba,Sm,,Fe,,,O,4,157.7155851,-1.658645778
163,Ba4Sm4Mn8O24,Ba,Sm,,Mn,,,O,4,107.9750668,-1.848396578
165,Ba4Sn4Hf1Zr6Fe1O24,Ba,Sn,,Zr,Fe,Hf,O,6,85.23364294,-2.325448895
166,Ba4Sn4Zr7Fe1O24,Ba,Sn,,Zr,Fe,,O,5,137.1260589,-2.255023519
168,Ba4Sr4Al2Fe6O24,Ba,Sr,,Al,Fe,,O,5,149.8500945,-1.610721839
169,Ba4Sr4Al4Fe4O24,Ba,Sr,,Al,Fe,,O,5,198.1066642,-1.775521959
170,Ba4Sr4Al6Fe2O24,Ba,Sr,,Al,Fe,,O,5,206.1582362,-1.976239579
172,Ba4Sr4Co4Ni4O24,Ba,Sr,,Co,Ni,,O,5,223.624761,-0.978963373
173,Ba4Sr4Co6Ni2O24,Ba,Sr,,Co,Ni,,O,5,182.220981,-1.078175154
174,Ba4Sr4Co7Ni1O24,Ba,Sr,,Co,Ni,,O,5,148.8738869,-1.136549795
175,Ba4Sr4Co8O24,Ba,Sr,,Co,,,O,4,122.3160428,-1.188135186
176,Ba4Sr4Cu8O24,Ba,Sr,,Cu,,,O,4,288.4865628,-0.8403560790000001
177,Ba4Sr4Fe1Co7O24,Ba,Sr,,Fe,Co,,O,5,120.40352959999998,-1.223204721
179,Ba4Sr4Fe2Co6O24,Ba,Sr,,Fe,Co,,O,5,123.7540164,-1.253011256
180,Ba4Sr4Fe2Cu6O24,Ba,Sr,,Fe,Cu,,O,5,253.560446,-0.983566989
181,Ba4Sr4Fe2Ni6O24,Ba,Sr,,Fe,Ni,,O,5,228.1696994,-0.945850413
182,Ba4Sr4Fe4Co4O24,Ba,Sr,,Fe,Co,,O,5,126.79849,-1.316280827
183,Ba4Sr4Fe4Cu4O24,Ba,Sr,,Fe,Cu,,O,5,218.9463975,-1.123257899
184,Ba4Sr4Fe4Ni4O24,Ba,Sr,,Fe,Ni,,O,5,184.9014486,-1.120253015
185,Ba4Sr4Fe6Co2O24,Ba,Sr,,Fe,Co,,O,5,117.2491681,-1.385657648
186,Ba4Sr4Fe6Cu2O24,Ba,Sr,,Fe,Cu,,O,5,151.7974405,-1.292659309
187,Ba4Sr4Fe6Ni2O24,Ba,Sr,,Fe,Ni,,O,5,137.583441,-1.290163617
188,Ba4Sr4Fe7Co1O24,Ba,Sr,,Fe,Co,,O,5,117.2470591,-1.411828183
189,Ba4Sr4Fe7Cu1O24,Ba,Sr,,Fe,Cu,,O,5,119.778837,-1.375804139
190,Ba4Sr4Fe7Ni1O24,Ba,Sr,,Fe,Ni,,O,5,113.09210790000002,-1.3745390430000002
191,Ba4Sr4Fe8O24,Ba,Sr,,Fe,,,O,4,92.54373354,-1.454165469
192,Ba4Sr4Ga1Fe7O24,Ba,Sr,,Ga,Fe,,O,5,118.3026576,-1.465192461
194,Ba4Sr4Ga4Fe4O24,Ba,Sr,,Ga,Fe,,O,5,202.6896798,-1.491163186
196,Ba4Sr4Ga8O24,Ba,Sr,,Ga,,,O,4,289.7129778,-1.532185904
197,Ba4Sr4Mn1Co7O24,Ba,Sr,,Mn,Co,,O,5,124.84257240000002,-1.238353946
198,Ba4Sr4Mn1Fe7O24,Ba,Sr,,Mn,Fe,,O,5,97.91858002,-1.474952444
199,Ba4Sr4Mn1Ni7O24,Ba,Sr,,Mn,Ni,,O,5,251.7034831,-0.875967962
200,Ba4Sr4Mn2Co6O24,Ba,Sr,,Mn,Co,,O,5,134.5996021,-1.281342207
201,Ba4Sr4Mn2Fe6O24,Ba,Sr,,Mn,Fe,,O,5,104.3729715,-1.494398919
202,Ba4Sr4Mn4Co4O24,Ba,Sr,,Mn,Co,,O,5,138.09122580000002,-1.3785499769999998
203,Ba4Sr4Mn4Fe4O24,Ba,Sr,,Mn,Fe,,O,5,104.2442075,-1.537434869
204,Ba4Sr4Mn4Ni4O24,Ba,Sr,,Mn,Ni,,O,5,199.5780955,-1.200445415
205,Ba4Sr4Mn6Co2O24,Ba,Sr,,Mn,Co,,O,5,165.10972969999997,-1.450745498
206,Ba4Sr4Mn6Fe2O24,Ba,Sr,,Mn,Fe,,O,5,126.8181702,-1.548883319
207,Ba4Sr4Mn6Ni2O24,Ba,Sr,,Mn,Ni,,O,5,180.0351679,-1.3857649669999998
208,Ba4Sr4Mn7Co1O24,Ba,Sr,,Mn,Co,,O,5,162.7842126,-1.498302759
209,Ba4Sr4Mn7Fe1O24,Ba,Sr,,Mn,Fe,,O,5,133.8833674,-1.556924544
210,Ba4Sr4Mn7Ni1O24,Ba,Sr,,Mn,Ni,,O,5,160.43480669999997,-1.475624618
211,Ba4Sr4Mn8O24,Ba,Sr,,Mn,,,O,4,137.791901,-1.567360519
212,Ba4Sr4Ni4Co4O24,Ba,Sr,,Ni,Co,,O,5,227.717761,-0.974870373
213,Ba4Sr4Ni6Co2O24,Ba,Sr,,Ni,Co,,O,5,283.0424293,-0.858388842
214,Ba4Sr4Ni7Co1O24,Ba,Sr,,Ni,Co,,O,5,272.8715799,-0.8150972009999999
216,Ba4Sr4V8O24,Ba,Sr,,V,,,O,4,66.96310632,-2.075277721
217,Ba4Sr4Zn1Fe7O24,Ba,Sr,,Fe,Zn,,O,5,119.7749833,-1.4110242590000002
218,Ba4Sr4Zn2Fe6O24,Ba,Sr,,Fe,Zn,,O,5,150.4727082,-1.36429005
219,Ba4Sr4Zn4Fe4O24,Ba,Sr,,Fe,Zn,,O,5,219.4021335,-1.263161132
220,Ba4Sr4Zn6Fe2O24,Ba,Sr,,Fe,Zn,,O,5,294.893175,-1.152772713
221,Ba4Sr4Zn8O24,Ba,Sr,,Zn,,,O,4,377.5020086,-1.025792545
223,Ba4Y4Cr8O24,Ba,Y,,Cr,,,O,4,160.8491605,-1.958316172
225,Ba4Y4Ga8O24,Ba,Y,,Ga,,,O,4,267.8544255,-1.845240579
226,Ba4Y4Mn8O24,Ba,Y,,Mn,,,O,4,124.6308404,-1.853725944
227,Ba4Y4Ni8O24,Ba,Y,,Ni,,,O,4,190.8708784,-1.160741736
229,Ba4Y4Ti8O24,Ba,Y,,Ti,,,O,4,70.04323975,-2.735192273
230,Ba4Y4V8O24,Ba,Y,,V,,,O,4,71.75494749,-2.238669896
231,Ba5Bi2La1Fe8O24,Ba,Bi,La,Fe,,,O,5,127.3781892,-1.358503661
232,Ba5Cd2La1Fe8O24,Ba,Cd,La,Fe,,,O,5,166.1874289,-1.260805286
233,Ba5Sn2La1Fe8O24,Ba,Sn,La,Fe,,,O,5,276.02872080000003,-1.29794037
234,Ba6Bi1La1Fe8O24,Ba,Bi,La,Fe,,,O,5,93.42580713,-1.443668329
235,Ba6Bi2Fe8O24,Ba,Bi,,Fe,,,O,4,129.3236717,-1.27956302
236,Ba6Bi2Zr7Fe1O24,Ba,Bi,,Zr,Fe,,O,5,0.202289181,-2.532279186
237,Ba6Ca2Fe8O24,Ba,Ca,,Fe,,,O,4,118.3037635,-1.421432245
238,Ba6Cd1La1Fe8O24,Ba,Cd,La,Fe,,,O,5,114.5546445,-1.390930141
239,Ba6Cd2Fe8O24,Ba,Cd,,Fe,,,O,4,175.5795965,-1.170088395
240,Ba6Cd2Hf1Zr6Fe1O24,Ba,Cd,,Zr,Fe,Hf,O,6,0.0,-2.536790687
241,Ba6Cd2Zr7Fe1O24,Ba,Cd,,Zr,Fe,,O,5,59.18382389999999,-2.456707811
243,Ba6Dy2Fe8O24,Ba,Dy,,Fe,,,O,4,121.3684215,-1.556909467
244,Ba6Gd2Fe8O24,Ba,Gd,,Fe,,,O,4,98.51156618,-1.5643527380000002
245,Ba6Hf2Mn6Zn2O24,Ba,Zn,,Mn,Hf,,O,5,219.4705308,-1.6540044530000002
246,Ba6Hf2Zn2Co6O24,Ba,Zn,,Co,Hf,,O,5,245.6479886,-1.35564614
247,Ba6Hf2Zn2Fe6O24,Ba,Zn,,Fe,Hf,,O,5,229.7901283,-1.5355313519999998
248,Ba6Hf2Zn2Ni6O24,Ba,Zn,,Ni,Hf,,O,5,396.8833354,-1.010474046
249,Ba6Ho2Fe8O24,Ba,Ho,,Fe,,,O,4,129.1284141,-1.551884538
250,Ba6La2Fe4Co4O24,Ba,La,,Fe,Co,,O,5,100.9711205,-1.469495996
251,Ba6La2Fe6Co2O24,Ba,La,,Fe,Co,,O,5,89.72129861,-1.5405733169999998
252,Ba6La2Fe7Co1O24,Ba,La,,Fe,Co,,O,5,73.01999556,-1.5747781019999998
253,Ba6La2Fe8O24,Ba,La,,Fe,,,O,4,60.35669252,-1.604944888
254,Ba6La2Mn2Fe6O24,Ba,La,,Mn,Fe,,O,5,69.97238548,-1.6476528380000002
255,Ba6Mg2Fe8O24,Ba,Mg,,Fe,,,O,4,236.664682,-1.277804499
256,Ba6Mn6Nb2Zn2O24,Ba,Zn,,Mn,Nb,,O,5,193.7216936,-1.599268589
257,Ba6Mn8Zn2O24,Ba,Zn,,Mn,,,O,4,276.2173687,-1.266850675
259,Ba6Nb2Zn2Fe6O24,Ba,Zn,,Fe,Nb,,O,5,214.1857524,-1.505804989
261,Ba6Nd2Fe8O24,Ba,Nd,,Fe,,,O,4,73.92834539,-1.578761707
262,Ba6Pr2Fe8O24,Ba,Pr,,Fe,,,O,4,67.13987502,-1.581496905
263,Ba6Sm2Fe8O24,Ba,Sm,,Fe,,,O,4,88.11493139,-1.571391817
264,Ba6Sn1La1Fe8O24,Ba,Sn,La,Fe,,,O,5,158.4270431,-1.429086308
265,Ba6Sn2Fe8O24,Ba,Sn,,Fe,,,O,4,283.9064534,-1.213067479
266,Ba6Sn2Hf1Zr6Fe1O24,Ba,Sn,,Zr,Fe,Hf,O,6,3.509828563,-2.581108771
267,Ba6Sn2Zr7Fe1O24,Ba,Sn,,Zr,Fe,,O,5,52.48224456,-2.513603395
268,Ba6Sr2Fe8O24,Ba,Sr,,Fe,,,O,4,84.20250562,-1.4404781619999998
269,Ba6Ta2Mn6Zn2O24,Ba,Zn,,Mn,Ta,,O,5,193.037892,-1.651939435
270,Ba6Ta2Zn2Co6O24,Ba,Zn,,Co,Ta,,O,5,200.2688814,-1.3771826230000002
271,Ba6Ta2Zn2Fe6O24,Ba,Zn,,Fe,Ta,,O,5,182.12903290000003,-1.563465835
272,Ba6Ta2Zn2Ni6O24,Ba,Zn,,Ni,Ta,,O,5,340.48947410000005,-1.063905279
273,Ba6Ti2Mn6Zn2O24,Ba,Zn,,Mn,Ti,,O,5,209.6344128,-1.589827507
274,Ba6Ti2Zn2Co6O24,Ba,Zn,,Co,Ti,,O,5,222.9273207,-1.310175945
275,Ba6Ti2Zn2Fe6O24,Ba,Zn,,Fe,Ti,,O,5,241.5377029,-1.468941407
276,Ba6Ti2Zn2Ni6O24,Ba,Zn,,Ni,Ti,,O,5,388.3951794,-0.970351601
277,Ba6Zn2Co8O24,Ba,Zn,,Co,,,O,4,249.5494434,-0.922120842
278,Ba6Zn2Fe8O24,Ba,Zn,,Fe,,,O,4,239.2147742,-1.147953875
279,Ba6Zn2Ni8O24,Ba,Zn,,Ni,,,O,4,407.1471861,-0.488125467
280,Ba6Zr2Mn6Zn2O24,Ba,Zn,,Mn,Zr,,O,5,201.4021128,-1.635006951
281,Ba6Zr2Zn2Co6O24,Ba,Zn,,Co,Zr,,O,5,218.8005706,-1.345427638
282,Ba6Zr2Zn2Fe6O24,Ba,Zn,,Fe,Zr,,O,5,296.5012103,-1.431754351
283,Ba6Zr2Zn2Ni6O24,Ba,Zn,,Ni,Zr,,O,5,344.7992754,-1.025327295
284,Ba7Bi1Fe8O24,Ba,Bi,,Fe,,,O,4,100.9492247,-1.354820188
285,Ba7Bi1Zr7Fe1O24,Ba,Bi,,Zr,Fe,,O,5,0.0,-2.660210354
286,Ba7Ca1Fe8O24,Ba,Ca,,Fe,,,O,4,97.86627057,-1.4233278
287,Ba7Cd1Fe8O24,Ba,Cd,,Fe,,,O,4,126.8863121,-1.29727375
288,Ba7Cd1Hf1Zr6Fe1O24,Ba,Cd,,Zr,Fe,Hf,O,6,0.0,-2.672813042
289,Ba7Cd1Zr7Fe1O24,Ba,Cd,,Zr,Fe,,O,5,22.47840028,-2.593572416
291,Ba7Dy1Fe8O24,Ba,Dy,,Fe,,,O,4,95.14422461,-1.495320786
292,Ba7Gd1Fe8O24,Ba,Gd,,Fe,,,O,4,83.92079694,-1.4988374219999998
293,Ba7Ho1Fe8O24,Ba,Ho,,Fe,,,O,4,99.06622089,-1.4927663219999998
295,Ba7La1Fe6Co2O24,Ba,La,,Fe,Co,,O,5,97.04621619,-1.4519236759999998
296,Ba7La1Fe7Co1O24,Ba,La,,Fe,Co,,O,5,86.04966315,-1.480423711
297,Ba7La1Fe8O24,Ba,La,,Fe,,,O,4,66.0766101,-1.5179002469999998
298,Ba7Mg1Fe8O24,Ba,Mg,,Fe,,,O,4,156.22972980000003,-1.352330927
300,Ba7Nd1Fe8O24,Ba,Nd,,Fe,,,O,4,71.90056154,-1.505770531
301,Ba7Pr1Fe8O24,Ba,Pr,,Fe,,,O,4,68.67920135,-1.506965255
302,Ba7Sm1Fe8O24,Ba,Sm,,Fe,,,O,4,78.67122954,-1.502408211
303,Ba7Sn1Fe8O24,Ba,Sn,,Fe,,,O,4,185.4042107,-1.320784417
304,Ba7Sn1Hf1Zr6Fe1O24,Ba,Sn,,Zr,Fe,Hf,O,6,0.0,-2.700424459
305,Ba7Sn1Zr7Fe1O24,Ba,Sn,,Zr,Fe,,O,5,21.17208738,-2.631881583
306,Ba7Sr1Fe8O24,Ba,Sr,,Fe,,,O,4,80.73776665,-1.432928634
307,Ba7Sr1Mn1Fe7O24,Ba,Sr,,Mn,Fe,,O,5,87.78436313,-1.452043859
308,Ba7Sr1Mn2Fe6O24,Ba,Sr,,Mn,Fe,,O,5,93.67170962,-1.472318334
309,Ba7Zn1Co8O24,Ba,Zn,,Co,,,O,4,177.28302040000003,-1.056878082
310,Ba7Zn1Fe8O24,Ba,Zn,,Fe,,,O,4,150.3710259,-1.294539365
311,Ba7Zn1Ni8O24,Ba,Zn,,Ni,,,O,4,325.4978877,-0.613376457
312,Ba8Al1Fe7O24,Ba,,,Al,Fe,,O,4,113.1353022,-1.4958436659999998
313,Ba8Al2Fe6O24,Ba,,,Al,Fe,,O,4,136.31607680000002,-1.578989726
315,Ba8Al6Fe2O24,Ba,,,Al,Fe,,O,4,201.8175651,-1.936929466
316,Ba8Al8O24,Ba,,,Al,,,O,3,227.4912848,-2.118311086
317,Ba8Co6Ni2O24,Ba,,,Co,Ni,,O,4,191.113049,-1.055268041
319,Ba8Co8O24,Ba,,,Co,,,O,3,124.5421108,-1.171894073
320,Ba8Cr8O24,Ba,,,Cr,,,O,3,15.00782838,-1.809455134
322,Ba8Fe1Co7O24,Ba,,,Fe,Co,,O,4,133.0303249,-1.193319608
324,Ba8Fe2Co6O24,Ba,,,Fe,Co,,O,4,120.4137889,-1.235849893
326,Ba8Fe2Nb1Co5O24,Ba,,,Fe,Nb,Co,O,5,122.3113557,-1.4220036109999998
327,Ba8Fe2Ni6O24,Ba,,,Fe,Ni,,O,4,202.2698084,-0.91972005
329,Ba8Fe4Cu4O24,Ba,,,Fe,Cu,,O,4,198.0618591,-1.098473286
330,Ba8Fe4Ir4O24,Ba,,,Fe,Ir,,O,4,0.0,-1.416635672
331,Ba8Fe4Mo4O24,Ba,,,Fe,Mo,,O,4,347.3831,-1.442927714
332,Ba8Fe4Ni4O24,Ba,,,Fe,Ni,,O,4,174.06027749999996,-1.087443402
334,Ba8Fe4Pd4O24,Ba,,,Fe,Pd,,O,4,41.60128787,-1.224044786
335,Ba8Fe4Pt4O24,Ba,,,Fe,Pt,,O,4,9.796766169,-1.309194198
336,Ba8Fe4Re4O24,Ba,,,Fe,Re,,O,4,0.678471,-1.762229139
337,Ba8Fe4Rh4O24,Ba,,,Fe,Rh,,O,4,7.487661938,-1.377199129
338,Ba8Fe4Ru4O24,Ba,,,Fe,Ru,,O,4,0.0,-1.51299853
339,Ba8Fe4Tc4O24,Ba,,,Fe,Tc,,O,4,0.0,-1.710742351
340,Ba8Fe6Co2O24,Ba,,,Fe,Co,,O,4,108.5373838,-1.359107785
341,Ba8Fe6Cu2O24,Ba,,,Fe,Cu,,O,4,134.18069340000002,-1.265412946
342,Ba8Fe6Ir2O24,Ba,,,Fe,Ir,,O,4,0.0,-1.445805264
343,Ba8Fe6Mo2O24,Ba,,,Fe,Mo,,O,4,179.2587231,-1.50189466
344,Ba8Fe6Ni2O24,Ba,,,Fe,Ni,,O,4,137.47965259999998,-1.244598254
345,Ba8Fe6Os2O24,Ba,,,Fe,Os,,O,4,29.45910878,-1.538052103
346,Ba8Fe6Pd2O24,Ba,,,Fe,Pd,,O,4,69.28696139,-1.3183956959999998
347,Ba8Fe6Pt2O24,Ba,,,Fe,Pt,,O,4,49.34328566,-1.366212652
349,Ba8Fe6Rh2O24,Ba,,,Fe,Rh,,O,4,36.52821981,-1.4071412419999998
350,Ba8Fe6Ru2O24,Ba,,,Fe,Ru,,O,4,12.9458568,-1.490029693
351,Ba8Fe6Tc2O24,Ba,,,Fe,Tc,,O,4,0.0,-1.636077103
352,Ba8Fe7Co1O24,Ba,,,Fe,Co,,O,4,91.46208074,-1.39368657
353,Ba8Fe7Cu1O24,Ba,,,Fe,Cu,,O,4,103.8011105,-1.347321776
354,Ba8Fe7Ir1O24,Ba,,,Fe,Ir,,O,4,32.0094037,-1.441287185
355,Ba8Fe7Mo1O24,Ba,,,Fe,Mo,,O,4,127.6818842,-1.4645248830000002
356,Ba8Fe7Ni1O24,Ba,,,Fe,Ni,,O,4,114.75434009999998,-1.32761068
357,Ba8Fe7Os1O24,Ba,,,Fe,Os,,O,4,34.7342257,-1.502512229
358,Ba8Fe7Pd1O24,Ba,,,Fe,Pd,,O,4,75.87824454,-1.369289151
359,Ba8Fe7Pt1O24,Ba,,,Fe,Pt,,O,4,63.68903168,-1.395415004
360,Ba8Fe7Re1O24,Ba,,,Fe,Re,,O,4,30.40327127,-1.573339364
361,Ba8Fe7Rh1O24,Ba,,,Fe,Rh,,O,4,56.15299875,-1.417007799
362,Ba8Fe7Ru1O24,Ba,,,Fe,Ru,,O,4,36.36319225,-1.466450649
363,Ba8Fe7Tc1O24,Ba,,,Fe,Tc,,O,4,0.0,-1.545820105
364,Ba8Fe8O24,Ba,,,Fe,,,O,3,77.29127769,-1.425360856