Unnamed: 0,Material Composition,A site #1,A site #2,A site #3,B site #1,B site #2,B site #3,X site,Number of elements,energy_above_hull (meV/atom),formation_energy (eV/atom)
742,La4Nd4Cr8O24,La,Nd,,Cr,,,O,4,0.0,-2.4060189
743,La4Nd4Fe8O24,La,Nd,,Fe,,,O,4,0.0,-2.153237122
744,La4Nd4Ga8O24,La,Nd,,Ga,,,O,4,15.44290641,-2.330161307
745,La4Nd4Mn8O24,La,Nd,,Mn,,,O,4,40.83543394,-2.173960922
746,La4Nd4Ni8O24,La,Nd,,Ni,,,O,4,133.5596583,-1.507648714
747,La4Nd4Sc8O24,La,Nd,,Sc,,,O,4,0.0,-3.180075044
748,La4Nd4Ti8O24,La,Nd,,Ti,,,O,4,40.79731663,-2.8174402510000003
749,La4Sm4Co8O24,La,Sm,,Co,,,O,4,59.05468284,-1.802386558
750,La4Sm4Cr8O24,La,Sm,,Cr,,,O,4,0.0,-2.418493869
751,La4Sm4Fe8O24,La,Sm,,Fe,,,O,4,0.0,-2.165137591
752,La4Sm4Ga8O24,La,Sm,,Ga,,,O,4,22.3715509,-2.341972526
753,La4Sm4Mn8O24,La,Sm,,Mn,,,O,4,44.85051669,-2.183729142
754,La4Sm4Ni8O24,La,Sm,,Ni,,,O,4,150.50818569999996,-1.5107126830000002
755,La4Sm4Sc8O24,La,Sm,,Sc,,,O,4,0.0,-3.1907570130000003
756,La4Sm4Ti8O24,La,Sm,,Ti,,,O,4,50.8263675,-2.8229392210000004
757,La4Sm4V8O24,La,Sm,,V,,,O,4,13.39023875,-2.4460155930000003
758,La4Sr4Co4Ni4O24,La,Sr,,Co,Ni,,O,5,136.4430882,-1.358388937
759,La4Sr4Co6Ni2O24,La,Sr,,Co,Ni,,O,5,97.37215001,-1.447514968
760,La4Sr4Co7Ni1O24,La,Sr,,Co,Ni,,O,5,79.32480591,-1.490589859
761,La4Sr4Fe1Co7O24,La,Sr,,Fe,Co,,O,5,71.04489782,-1.559876285
762,La4Sr4Fe1Ni7O24,La,Sr,,Fe,Ni,,O,5,191.4045361,-1.2500298
763,La4Sr4Fe2Co6O24,La,Sr,,Fe,Co,,O,5,78.90633383,-1.58799382
764,La4Sr4Fe2Ni6O24,La,Sr,,Fe,Ni,,O,5,173.74653569999995,-1.333254976
765,La4Sr4Mn1Co7O24,La,Sr,,Mn,Co,,O,5,68.40090273,-1.58071426
766,La4Sr4Mn1Ni7O24,La,Sr,,Mn,Ni,,O,5,204.5548938,-1.257334025
767,La4Sr4Mn2Co6O24,La,Sr,,Mn,Co,,O,5,55.94984366,-1.64733827
768,La4Sr4Mn4Co4O24,La,Sr,,Mn,Co,,O,5,54.63840294,-1.754140291
769,La4Sr4Mn4Ni4O24,La,Sr,,Mn,Ni,,O,5,117.7922768,-1.582569979
770,La4Sr4Mn6Co2O24,La,Sr,,Mn,Co,,O,5,59.52415623,-1.842328812
771,La4Sr4Mn6Fe2O24,La,Sr,,Mn,Fe,,O,5,45.29321414,-1.919326133
772,La4Sr4Mn6Ni2O24,La,Sr,,Mn,Ni,,O,5,83.15072959,-1.766397781
773,La4Sr4Mn7Co1O24,La,Sr,,Mn,Co,,O,5,60.28509071,-1.887070322
774,La4Sr4Mn7Fe1O24,La,Sr,,Mn,Fe,,O,5,53.12824467,-1.925610358
775,La4Sr4Mn7Ni1O24,La,Sr,,Mn,Ni,,O,5,69.20850033,-1.852758682
776,La4Sr4Ni4Co4O24,La,Sr,,Ni,Co,,O,5,132.2115882,-1.362620437
777,La4Sr4Ni6Co2O24,La,Sr,,Ni,Co,,O,5,178.5198683,-1.258504156
778,La4Sr4Ni7Co1O24,La,Sr,,Ni,Co,,O,5,193.5178274,-1.212927765
779,La5Mn8Zn3O24,La,Zn,,Mn,,,O,4,145.9364657,-1.678776639
781,La5Zn3Co8O24,La,Zn,,Co,,,O,4,181.6597463,-1.283282806
782,La5Zn3Fe8O24,La,Zn,,Fe,,,O,4,176.1933526,-1.555183839
783,La5Zn3Ni8O24,La,Zn,,Ni,,,O,4,304.216098,-0.949567681
784,La6Dy2Co8O24,La,Dy,,Co,,,O,4,59.55211041,-1.822699279
785,La6Dy2Fe8O24,La,Dy,,Fe,,,O,4,0.0,-2.177125562
786,La6Dy2Ga8O24,La,Dy,,Ga,,,O,4,25.36959074,-2.352538497
787,La6Dy2Mn8O24,La,Dy,,Mn,,,O,4,53.84255407,-2.196951113
789,La6Dy2Sc8O24,La,Dy,,Sc,,,O,4,0.0,-3.204215734
790,La6Dy2Ti8O24,La,Dy,,Ti,,,O,4,52.62963569,-2.841028442
791,La6Dy2V8O24,La,Dy,,V,,,O,4,44.856381,-2.460089064
792,La6Gd2Co8O24,La,Gd,,Co,,,O,4,0.0,-2.207747551
793,La6Gd2Cr8O24,La,Gd,,Cr,,,O,4,0.0,-2.781641862
794,La6Gd2Fe8O24,La,Gd,,Fe,,,O,4,0.0,-2.528814834
795,La6Gd2Ga8O24,La,Gd,,Ga,,,O,4,85.96097361,-2.276456519
796,La6Gd2Mn8O24,La,Gd,,Mn,,,O,4,0.0,-2.560419884
797,La6Gd2Ni8O24,La,Gd,,Ni,,,O,4,0.0,-2.162580426
798,La6Gd2Sc8O24,La,Gd,,Sc,,,O,4,30.22875,-3.147375256
799,La6Gd2Ti8O24,La,Gd,,Ti,,,O,4,34.51982144,-2.845606213
800,La6Gd2V8O24,La,Gd,,V,,,O,4,0.0,-2.872378336
802,La6Hf2Zn2Co6O24,La,Zn,,Co,Hf,,O,5,146.5949355,-1.873012986
803,La6Hf2Zn2Fe6O24,La,Zn,,Fe,Hf,,O,5,156.51523,-2.064646448
804,La6Hf2Zn2Ni6O24,La,Zn,,Ni,Hf,,O,5,214.2529157,-1.6478421419999998
805,La6Ho2Cr8O24,La,Ho,,Cr,,,O,4,0.0,-2.430117911
806,La6Ho2Fe8O24,La,Ho,,Fe,,,O,4,0.0,-2.173331633
807,La6Ho2Ga8O24,La,Ho,,Ga,,,O,4,26.82825386,-2.3522200680000003
808,La6Ho2Mn8O24,La,Ho,,Mn,,,O,4,56.75173357,-2.196571934
809,La6Ho2Ni8O24,La,Ho,,Ni,,,O,4,161.61585580000005,-1.523150225
810,La6Ho2Sc8O24,La,Ho,,Sc,,,O,4,0.0,-3.203907555
811,La6Ho2Ti8O24,La,Ho,,Ti,,,O,4,55.37827769,-2.839385013
812,La6Ho2V8O24,La,Ho,,V,,,O,4,47.61927988,-2.458427385
813,La6Mn6Nb2Zn2O24,La,Zn,,Mn,Nb,,O,5,106.5666851,-2.071447185
814,La6Mn8Zn2O24,La,Zn,,Mn,,,O,4,94.57362569,-1.867919021
815,La6Nb2Zn2Co6O24,La,Zn,,Co,Nb,,O,5,143.14427,-1.803925372
816,La6Nb2Zn2Fe6O24,La,Zn,,Fe,Nb,,O,5,110.462825,-1.991988334
817,La6Nb2Zn2Ni6O24,La,Zn,,Ni,Nb,,O,5,185.1823346,-1.6117220280000002
819,La6Nd2Cr8O24,La,Nd,,Cr,,,O,4,0.0,-2.418153331
820,La6Nd2Fe8O24,La,Nd,,Fe,,,O,4,0.0,-2.165611803
821,La6Nd2Ga8O24,La,Nd,,Ga,,,O,4,12.63281495,-2.3416749880000003
822,La6Nd2Mn8O24,La,Nd,,Mn,,,O,4,40.25443982,-2.186169603
823,La6Nd2Ni8O24,La,Nd,,Ni,,,O,4,131.30468,-1.521898395
824,La6Nd2Sc8O24,La,Nd,,Sc,,,O,4,0.0,-3.193954225
825,La6Nd2V8O24,La,Nd,,V,,,O,4,35.46209575,-2.449305055
826,La6Sm2Co8O24,La,Sm,,Co,,,O,4,43.19281587,-1.820236879
827,La6Sm2Cr8O24,La,Sm,,Cr,,,O,4,0.0,-2.42340544
828,La6Sm2Fe8O24,La,Sm,,Fe,,,O,4,0.0,-2.170608912
829,La6Sm2Ga8O24,La,Sm,,Ga,,,O,4,17.33731032,-2.346440347
830,La6Sm2Mn8O24,La,Sm,,Mn,,,O,4,43.48823119,-2.1898274630000003
832,La6Sm2Sc8O24,La,Sm,,Sc,,,O,4,0.0,-3.198367834
833,La6Sm2Ti8O24,La,Sm,,Ti,,,O,4,42.32480613,-2.838161542
834,La6Sm2V8O24,La,Sm,,V,,,O,4,26.16951838,-2.4532064140000003
835,La6Ta2Mn6Zn2O24,La,Zn,,Mn,Ta,,O,5,96.27921014,-2.135036781
836,La6Ta2Zn2Co6O24,La,Zn,,Co,Ta,,O,5,140.87646030000005,-1.864267969
837,La6Ta2Zn2Fe6O24,La,Zn,,Fe,Ta,,O,5,110.503751,-2.048010931
838,La6Ta2Zn2Ni6O24,La,Zn,,Ni,Ta,,O,5,186.8357749,-1.668143375
839,La6Ti2Mn6Zn2O24,La,Zn,,Mn,Ti,,O,5,95.94694389,-2.116554103
840,La6Ti2Zn2Co6O24,La,Zn,,Co,Ti,,O,5,140.79148830000003,-1.82437329
842,La6Ti2Zn2Ni6O24,La,Zn,,Ni,Ti,,O,5,202.29096840000003,-1.605360947
843,La6Zn2Co8O24,La,Zn,,Co,,,O,4,121.2020585,-1.477420437
845,La6Zn2Ni8O24,La,Zn,,Ni,,,O,4,241.9912159,-1.148930562
849,La6Zr2Zn2Ni6O24,La,Zn,,Ni,Zr,,O,5,200.0474694,-1.62536864
850,La7Mn8Zn1O24,La,Zn,,Mn,,,O,4,64.76678569,-2.035505402
851,La7Zn1Co8O24,La,Zn,,Co,,,O,4,73.74750372,-1.658272819
852,La7Zn1Fe8O24,La,Zn,,Fe,,,O,4,79.88432553,-1.932741352
853,La7Zn1Ni8O24,La,Zn,,Ni,,,O,4,188.13958380000003,-1.339920194
854,La8Co1Ni7O24,La,,,Co,Ni,,O,4,108.9798576,-1.581245466
855,La8Co2Ni6O24,La,,,Co,Ni,,O,4,86.40676351,-1.628846106
856,La8Co4Ni4O24,La,,,Co,Ni,,O,4,55.71532531,-1.7095926380000002
858,La8Co7Ni1O24,La,,,Co,Ni,,O,4,48.91154301,-1.79147906
859,La8Co8O24,La,,,Co,,,O,3,25.83894891,-1.8395792
860,La8Cr1Co7O24,La,,,Cr,Co,,O,4,34.47065573,-1.898585083
861,La8Cr1Fe7O24,La,,,Cr,Fe,,O,4,0.0,-2.21407383
862,La8Cr1Ga7O24,La,,,Cr,Ga,,O,4,1.747132,-2.364538524
863,La8Cr1Ni7O24,La,,,Cr,Ni,,O,4,114.2473144,-1.643615598
864,La8Cr2Co6O24,La,,,Cr,Co,,O,4,60.12311255,-1.940570215
865,La8Cr2Fe6O24,La,,,Cr,Fe,,O,4,19.90147863,-2.196665678
866,La8Cr2Ga6O24,La,,,Cr,Ga,,O,4,0.0,-2.374713879
867,La8Cr2Ni6O24,La,,,Cr,Ni,,O,4,95.76367716,-1.754764372
868,La8Cr4Co4O24,La,,,Cr,Co,,O,4,0.0,-2.140550731
870,La8Cr4Ni4O24,La,,,Cr,Ni,,O,4,0.0,-2.050549668
871,La8Cr6Co2O24,La,,,Cr,Co,,O,4,0.0,-2.284171496
872,La8Cr6Fe2O24,La,,,Cr,Fe,,O,4,0.0,-2.375530067
873,La8Cr6Ni2O24,La,,,Cr,Ni,,O,4,0.0,-2.222467465
874,La8Cr7Co1O24,La,,,Cr,Co,,O,4,0.0,-2.359609879
875,La8Cr7Fe1O24,La,,,Cr,Fe,,O,4,0.0,-2.403666414
876,La8Cr7Ni1O24,La,,,Cr,Ni,,O,4,0.0,-2.335207988
877,La8Cr8O24,La,,,Cr,,,O,3,0.0,-2.431085511
878,La8Fe1Co7O24,La,,,Fe,Co,,O,4,40.91463492,-1.860482486
879,La8Fe1Ni7O24,La,,,Fe,Ni,,O,4,115.2002936,-1.611004001
880,La8Fe2Co6O24,La,,,Fe,Co,,O,4,39.33157093,-1.898044521
881,La8Fe2Ni6O24,La,,,Fe,Ni,,O,4,102.5143855,-1.6846964269999998
882,La8Fe4Co4O24,La,,,Fe,Co,,O,4,1.920942953,-2.007413092
883,La8Fe4Ni4O24,La,,,Fe,Ni,,O,4,0.0,-1.911433779
884,La8Fe6Co2O24,La,,,Fe,Co,,O,4,0.0,-2.106539412
885,La8Fe6Ni2O24,La,,,Fe,Ni,,O,4,0.0,-2.048282631
886,La8Fe7Co1O24,La,,,Fe,Co,,O,4,0.0,-2.142089948
887,La8Fe7Ni1O24,La,,,Fe,Ni,,O,4,0.0,-2.117691807
888,La8Fe8O24,La,,,Fe,,,O,3,0.0,-2.178901233
889,La8Ga4Co4O24,La,,,Ga,Co,,O,4,26.31847508,-2.108013809
890,La8Ga4Fe4O24,La,,,Ga,Fe,,O,4,0.0,-2.276335951
891,La8Ga4Ni4O24,La,,,Ga,Ni,,O,4,67.08510148,-1.967136997
892,La8Ga6Co2O24,La,,,Ga,Co,,O,4,16.57505557,-2.230860114
893,La8Ga6Fe2O24,La,,,Ga,Fe,,O,4,0.0,-2.315935434
896,La8Ga7Fe1O24,La,,,Ga,Fe,,O,4,0.0,-2.335473176
897,La8Ga7Ni1O24,La,,,Ga,Ni,,O,4,25.17480383,-2.257032
898,La8Ga8O24,La,,,Ga,,,O,3,6.371386071,-2.354166668
899,La8Mg1Co7O24,La,,,Mg,Co,,O,4,0.0,-2.268157338
901,La8Mg1Fe7O24,La,,,Mg,Fe,,O,4,0.0,-2.625085836
902,La8Mg1Ga7O24,La,,,Mg,Ga,,O,4,34.94084008,-2.354874529
903,La8Mg1Mn7O24,La,,,Mg,Mn,,O,4,0.0,-2.596978161
904,La8Mg1Ni7O24,La,,,Mg,Ni,,O,4,0.0,-2.222312104
905,La8Mg1Sc7O24,La,,,Mg,Sc,,O,4,5.056256339,-3.09574308
906,La8Mg1Ti7O24,La,,,Mg,Ti,,O,4,25.722252,-2.871165949
907,La8Mg1V7O24,La,,,Mg,V,,O,4,0.0,-2.8764654
910,La8Mg2Fe6O24,La,,,Mg,Fe,,O,4,0.0,-2.626363189
911,La8Mg2Ga6O24,La,,,Mg,Ga,,O,4,60.36059818,-2.35469414
912,La8Mg2Mn6O24,La,,,Mg,Mn,,O,4,0.0,-2.625653539
913,La8Mg2Ni6O24,La,,,Mg,Ni,,O,4,0.0,-2.265586133
914,La8Mg2Sc6O24,La,,,Mg,Sc,,O,4,34.36901768,-2.983422505
915,La8Mg2Ti6O24,La,,,Mg,Ti,,O,4,24.13350925,-2.8824357860000003
916,La8Mg2V6O24,La,,,Mg,V,,O,4,0.0,-2.862613065
917,La8Mg4Co4O24,La,,,Mg,Co,,O,4,0.0,-2.385439753
918,La8Mg4Cr4O24,La,,,Mg,Cr,,O,4,0.0,-2.768165784
919,La8Mg4Fe4O24,La,,,Mg,Fe,,O,4,0.0,-2.632480145
920,La8Mg4Ga4O24,La,,,Mg,Ga,,O,4,108.2246685,-2.353270862
921,La8Mg4Mn4O24,La,,,Mg,Mn,,O,4,0.0,-2.657694045
922,La8Mg4Ni4O24,La,,,Mg,Ni,,O,4,0.0,-2.349057441
924,La8Mg4Ti4O24,La,,,Mg,Ti,,O,4,22.18427375,-2.903747209
926,La8Mn1Co7O24,La,,,Mn,Co,,O,4,27.99263983,-1.891598461
928,La8Mn1Fe7O24,La,,,Mn,Fe,,O,4,0.0,-2.185010208
929,La8Mn1Ga7O24,La,,,Mn,Ga,,O,4,33.43611227,-2.311791151
930,La8Mn1Ni7O24,La,,,Mn,Ni,,O,4,100.4570447,-1.636347476
931,La8Mn1V7O24,La,,,Mn,V,,O,4,86.88965402,-2.384837022
932,La8Mn2Co6O24,La,,,Mn,Co,,O,4,29.94908075,-1.943814971
933,La8Mn2Cr6O24,La,,,Mn,Cr,,O,4,0.0,-2.377242517
934,La8Mn2Fe6O24,La,,,Mn,Fe,,O,4,27.03043917,-2.147419933
935,La8Mn2Ga6O24,La,,,Mn,Ga,,O,4,7.745588477,-2.322170885
936,La8Mn2Ni6O24,La,,,Mn,Ni,,O,4,69.26938771,-1.7391418769999998
937,La8Mn2V6O24,La,,,Mn,V,,O,4,36.17951005,-2.40792781
938,La8Mn4Co4O24,La,,,Mn,Co,,O,4,26.7022126,-2.055407742
939,La8Mn4Cr4O24,La,,,Mn,Cr,,O,4,0.0,-2.331426772
940,La8Mn4Fe4O24,La,,,Mn,Fe,,O,4,0.0,-2.213869383
941,La8Mn4Ga4O24,La,,,Mn,Ga,,O,4,0.0,-2.393529851
942,La8Mn4Ni4O24,La,,,Mn,Ni,,O,4,0.442073704,-1.951182679
944,La8Mn6Co2O24,La,,,Mn,Co,,O,4,48.99432914,-2.111086513
945,La8Mn6Cr2O24,La,,,Mn,Cr,,O,4,49.84773514,-2.2303207780000003
946,La8Mn6Fe2O24,La,,,Mn,Fe,,O,4,43.99569352,-2.172855583
947,La8Mn6Ni2O24,La,,,Mn,Ni,,O,4,19.2047597,-2.075633481
948,La8Mn7Co1O24,La,,,Mn,Co,,O,4,36.50751242,-2.162558773
949,La8Mn7Cr1O24,La,,,Mn,Cr,,O,4,43.12521542,-2.215984906
950,La8Mn7Fe1O24,La,,,Mn,Fe,,O,4,40.26469461,-2.1871868080000003
952,La8Mn8O24,La,,,Mn,,,O,3,39.22644569,-2.198825283
953,La8Ni8O24,La,,,Ni,,,O,3,128.9359517,-1.536261825
954,La8Sc4Co4O24,La,,,Sc,Co,,O,4,0.0,-2.525178553
955,La8Sc4Cr4O24,La,,,Sc,Cr,,O,4,0.0,-2.822542583
956,La8Sc4Fe4O24,La,,,Sc,Fe,,O,4,0.0,-2.699060194
957,La8Sc4Mn4O24,La,,,Sc,Mn,,O,4,0.0,-2.718608344
958,La8Sc4Ni4O24,La,,,Sc,Ni,,O,4,44.41847336,-2.38008399
959,La8Sc6Co2O24,La,,,Sc,Co,,O,4,0.0,-2.863780729
960,La8Sc6Cr2O24,La,,,Sc,Cr,,O,4,0.0,-3.012704494
961,La8Sc6Fe2O24,La,,,Sc,Fe,,O,4,0.0,-2.9525163
962,La8Sc6Mn2O24,La,,,Sc,Mn,,O,4,0.0,-2.958589
963,La8Sc6Ni2O24,La,,,Sc,Ni,,O,4,16.20435918,-2.787950448
964,La8Sc7Co1O24,La,,,Sc,Co,,O,4,0.0,-3.035703692
965,La8Sc7Cr1O24,La,,,Sc,Cr,,O,4,0.0,-3.109946075
966,La8Sc7Fe1O24,La,,,Sc,Fe,,O,4,0.0,-3.080372977
967,La8Sc7Mn1O24,La,,,Sc,Mn,,O,4,9.523520087,-3.056064202
969,La8Sc8O24,La,,,Sc,,,O,3,0.0,-3.208486405
970,La8Ti4Co4O24,La,,,Ti,Co,,O,4,23.94141725,-2.553876156
971,La8Ti4Cr4O24,La,,,Ti,Cr,,O,4,62.94422008,-2.641767437
972,La8Ti4Fe4O24,La,,,Ti,Fe,,O,4,28.81237225,-2.6167545480000003
973,La8Ti4Mn4O24,La,,,Ti,Mn,,O,4,37.34883385,-2.674541698
974,La8Ti4Ni4O24,La,,,Ti,Ni,,O,4,39.83120675,-2.458826844
975,La8Ti6Co2O24,La,,,Ti,Co,,O,4,141.47054359999996,-2.712337509
976,La8Ti6Cr2O24,La,,,Ti,Cr,,O,4,117.1257784,-2.736682275
977,La8Ti6Fe2O24,La,,,Ti,Fe,,O,4,118.5429729,-2.73526508
979,La8Ti6Ni2O24,La,,,Ti,Ni,,O,4,208.9890749,-2.644818978
981,La8Ti7Cr1O24,La,,,Ti,Cr,,O,4,74.7468692,-2.796753194
982,La8Ti7Fe1O24,La,,,Ti,Fe,,O,4,79.23257647,-2.7964158460000004
983,La8Ti7Mn1O24,La,,,Ti,Mn,,O,4,65.35570687,-2.8084605710000003
985,La8Ti8O24,La,,,Ti,,,O,3,30.17024475,-2.8570368630000003
986,La8V4Co4O24,La,,,V,Co,,O,4,31.378064,-2.233302843
987,La8V4Cr4O24,La,,,V,Cr,,O,4,49.15732575,-2.403775123
988,La8V4Fe4O24,La,,,V,Fe,,O,4,28.2257425,-2.298072234
989,La8V4Ni4O24,La,,,V,Ni,,O,4,104.542615,-2.12055853
990,La8V6Co2O24,La,,,V,Co,,O,4,61.21370263,-2.329756289
991,La8V6Cr2O24,La,,,V,Cr,,O,4,48.57118688,-2.427568054
992,La8V6Fe2O24,La,,,V,Fe,,O,4,35.15839525,-2.37766361
993,La8V6Ni2O24,La,,,V,Ni,,O,4,117.71448390000002,-2.273255508
994,La8V7Co1O24,La,,,V,Co,,O,4,57.49950031,-2.387658512
996,La8V7Fe1O24,La,,,V,Fe,,O,4,35.12322163,-2.420960797
997,La8V7Ni1O24,La,,,V,Ni,,O,4,73.00164094,-2.372156371
998,La8V8O24,La,,,V,,,O,3,36.257048,-2.463088985
999,Mg8Fe8O24,Mg,,,Fe,,,O,3,636.3393247,-0.8987991790000001
1000,Nd2Y6Co8O24,Nd,Y,,Co,,,O,4,54.15149222,-1.833547606
1002,Nd2Y6Fe8O24,Nd,Y,,Fe,,,O,4,31.76337063,-2.108750139
1004,Nd2Y6Mn8O24,Nd,Y,,Mn,,,O,4,43.82195669,-2.201371689
1005,Nd2Y6Ni8O24,Nd,Y,,Ni,,,O,4,82.62024503,-1.604858481
1006,Nd2Y6Sc8O24,Nd,Y,,Sc,,,O,4,31.50426003,-3.149843311
1007,Nd2Y6Ti8O24,Nd,Y,,Ti,,,O,4,45.06238163,-2.829013518
1008,Nd2Y6V8O24,Nd,Y,,V,,,O,4,0.0,-2.503506641
1009,Nd4Y4Co8O24,Nd,Y,,Co,,,O,4,45.40436553,-1.818874813
1010,Nd4Y4Cr8O24,Nd,Y,,Cr,,,O,4,33.885364,-2.350932624
1012,Nd4Y4Ga8O24,Nd,Y,,Ga,,,O,4,79.07980342,-2.274774531
1013,Nd4Y4Mn8O24,Nd,Y,,Mn,,,O,4,45.03777853,-2.182271646
1014,Nd4Y4Ni8O24,Nd,Y,,Ni,,,O,4,73.30236834,-1.590756438
1015,Nd4Y4Sc8O24,Nd,Y,,Sc,,,O,4,30.74580969,-3.132932518
1016,Nd4Y4Ti8O24,Nd,Y,,Ti,,,O,4,46.69821725,-2.8124417260000003
1017,Nd4Y4V8O24,Nd,Y,,V,,,O,4,0.0,-2.489659098
1018,Nd8Fe8O24,Nd,,,Fe,,,O,3,209.8692985,-1.892934511
1019,Pr4Ba4Co4Ni4O24,Pr,Ba,,Co,Ni,,O,5,169.625113,-1.275689108
1020,Pr4Ba4Co6Ni2O24,Pr,Ba,,Co,Ni,,O,5,163.7991748,-1.331570139
1021,Pr4Ba4Co7Ni1O24,Pr,Ba,,Co,Ni,,O,5,139.01358069999998,-1.38138328
1022,Pr4Ba4Fe1Co7O24,Pr,Ba,,Fe,Co,,O,5,131.7614622,-1.450185206
1023,Pr4Ba4Fe1Ni7O24,Pr,Ba,,Fe,Ni,,O,5,221.0559036,-1.140567972
1024,Pr4Ba4Fe2Co6O24,Pr,Ba,,Fe,Co,,O,5,130.3471878,-1.4881217409999998
1025,Pr4Ba4Fe2Ni6O24,Pr,Ba,,Fe,Ni,,O,5,204.0465713,-1.223801398
1026,Pr4Ba4Mn1Co7O24,Pr,Ba,,Mn,Co,,O,5,124.477908,-1.470896931
1027,Pr4Ba4Mn1Ni7O24,Pr,Ba,,Mn,Ni,,O,5,227.8786717,-1.157153447
1030,Pr4Ba4Mn2Ni6O24,Pr,Ba,,Mn,Ni,,O,5,232.6998188,-1.244319848
1031,Pr4Ba4Mn4Co4O24,Pr,Ba,,Mn,Co,,O,5,100.2079541,-1.643816212
1033,Pr4Ba4Mn6Co2O24,Pr,Ba,,Mn,Co,,O,5,122.6776568,-1.716423983
1034,Pr4Ba4Mn6Fe2O24,Pr,Ba,,Mn,Fe,,O,5,101.768108,-1.810378054
1035,Pr4Ba4Mn6Ni2O24,Pr,Ba,,Mn,Ni,,O,5,135.39084499999998,-1.6536557019999998
1036,Pr4Ba4Mn7Co1O24,Pr,Ba,,Mn,Co,,O,5,100.8648832,-1.785775494
1037,Pr4Ba4Mn7Fe1O24,Pr,Ba,,Mn,Fe,,O,5,106.2203588,-1.816942279
1038,Pr4Ba4Mn7Ni1O24,Pr,Ba,,Mn,Ni,,O,5,121.4289773,-1.7401838530000002
1039,Pr4Ba4Ni4Co4O24,Pr,Ba,,Ni,Co,,O,5,191.512363,-1.253801858
1040,Pr4Ba4Ni6Co2O24,Pr,Ba,,Ni,Co,,O,5,262.8963012,-1.132362827
1041,Pr4Ba4Ni7Co1O24,Pr,Ba,,Ni,Co,,O,5,250.5792685,-1.094750186
1042,Pr4Ca4Co4Ni4O24,Pr,Ca,,Co,Ni,,O,5,184.5165389,-1.301871387
1043,Pr4Ca4Co6Ni2O24,Pr,Ca,,Co,Ni,,O,5,161.2933507,-1.3751496680000002
1044,Pr4Ca4Co7Ni1O24,Pr,Ca,,Co,Ni,,O,5,135.16475659999998,-1.426305809
1045,Pr4Ca4Fe1Co7O24,Pr,Ca,,Fe,Co,,O,5,59.85113809,-1.563169235
1046,Pr4Ca4Fe1Ni7O24,Pr,Ca,,Fe,Ni,,O,5,258.64004680000005,-1.189187501
1047,Pr4Ca4Fe2Co6O24,Pr,Ca,,Fe,Co,,O,5,129.3191137,-1.53022352
1048,Pr4Ca4Fe2Ni6O24,Pr,Ca,,Fe,Ni,,O,5,238.9881783,-1.270389177
1049,Pr4Ca4Mn1Co7O24,Pr,Ca,,Mn,Co,,O,5,70.82208722,-1.56339271
1050,Pr4Ca4Mn1Ni7O24,Pr,Ca,,Mn,Ni,,O,5,252.6114959,-1.2064104759999998
1051,Pr4Ca4Mn2Co6O24,Pr,Ca,,Mn,Co,,O,5,96.99151193,-1.5849399709999998
1052,Pr4Ca4Mn2Ni6O24,Pr,Ca,,Mn,Ni,,O,5,223.3078265,-1.308458377
1053,Pr4Ca4Mn4Co4O24,Pr,Ca,,Mn,Co,,O,5,88.47736135,-1.688887491
1054,Pr4Ca4Mn4Ni4O24,Pr,Ca,,Mn,Ni,,O,5,160.2339878,-1.517020679
1055,Pr4Ca4Mn6Co2O24,Pr,Ca,,Mn,Co,,O,5,98.39446077,-1.774403762
1056,Pr4Ca4Mn6Fe2O24,Pr,Ca,,Mn,Fe,,O,5,95.45473206,-1.849562083
1057,Pr4Ca4Mn6Ni2O24,Pr,Ca,,Mn,Ni,,O,5,121.127399,-1.701615731
1059,Pr4Ca4Mn7Fe1O24,Pr,Ca,,Mn,Fe,,O,5,100.7636461,-1.855860558
1060,Pr4Ca4Mn7Ni1O24,Pr,Ca,,Mn,Ni,,O,5,108.4259796,-1.787061382
1061,Pr4Ca4Ni4Co4O24,Pr,Ca,,Ni,Co,,O,5,186.7177889,-1.299670137
1062,Pr4Ca4Ni6Co2O24,Pr,Ca,,Ni,Co,,O,5,245.4889771,-1.190843856
1063,Pr4Ca4Ni7Co1O24,Pr,Ca,,Ni,Co,,O,5,259.2165712,-1.152088715
1064,Pr4Dy4Co8O24,Pr,Dy,,Co,,,O,4,50.83922866,-1.812742643
1065,Pr4Dy4Cr8O24,Pr,Dy,,Cr,,,O,4,9.106651,-2.342747454
1066,Pr4Dy4Fe8O24,Pr,Dy,,Fe,,,O,4,51.31971375,-2.081837926
1067,Pr4Dy4Ga8O24,Pr,Dy,,Ga,,,O,4,90.00434745,-2.264112111
1068,Pr4Dy4Mn8O24,Pr,Dy,,Mn,,,O,4,56.73302619,-2.175137976
1069,Pr4Dy4Ni8O24,Pr,Dy,,Ni,,,O,4,150.5629815,-1.512798518
1070,Pr4Dy4Sc8O24,Pr,Dy,,Sc,,,O,4,43.12872844,-3.123075848
1071,Pr4Dy4Ti8O24,Pr,Dy,,Ti,,,O,4,95.22684338,-2.754343805
1072,Pr4Dy4V8O24,Pr,Dy,,V,,,O,4,6.890127562999999,-2.432188678
1073,Pr4Gd4Co8O24,Pr,Gd,,Co,,,O,4,0.0,-2.018360436
1074,Pr4Gd4Cr8O24,Pr,Gd,,Cr,,,O,4,0.0,-2.744937497
1075,Pr4Gd4Fe8O24,Pr,Gd,,Fe,,,O,4,0.0,-2.4975817190000003
1076,Pr4Gd4Ga8O24,Pr,Gd,,Ga,,,O,4,78.35022953,-2.244852154
1077,Pr4Gd4Mn8O24,Pr,Gd,,Mn,,,O,4,0.0,-2.531133269
1078,Pr4Gd4Ni8O24,Pr,Gd,,Ni,,,O,4,0.0,-2.133295061
1079,Pr4Gd4Sc8O24,Pr,Gd,,Sc,,,O,4,26.50926775,-3.1088681410000003
1080,Pr4Gd4Ti8O24,Pr,Gd,,Ti,,,O,4,55.01006219,-2.765386099
1081,Pr4Gd4V8O24,Pr,Gd,,V,,,O,4,0.0,-2.802416221
1082,Pr4Ho4Co8O24,Pr,Ho,,Co,,,O,4,57.38221378,-1.811669785
1083,Pr4Ho4Cr8O24,Pr,Ho,,Cr,,,O,4,10.51108275,-2.344133596
1084,Pr4Ho4Fe8O24,Pr,Ho,,Fe,,,O,4,52.52667425,-2.083113318
1085,Pr4Ho4Ga8O24,Pr,Ho,,Ga,,,O,4,91.38113959,-2.2653347530000003
1086,Pr4Ho4Mn8O24,Pr,Ho,,Mn,,,O,4,60.86288519,-2.1760681180000003
1087,Pr4Ho4Ni8O24,Pr,Ho,,Ni,,,O,4,154.69746659999996,-1.51413416
1088,Pr4Ho4Sc8O24,Pr,Ho,,Sc,,,O,4,49.58150338,-3.12388774
1089,Pr4Ho4Ti8O24,Pr,Ho,,Ti,,,O,4,103.2663285,-2.751774447
1090,Pr4Ho4V8O24,Pr,Ho,,V,,,O,4,7.055925313,-2.43422532
1091,Pr4Nd4Co8O24,Pr,Nd,,Co,,,O,4,25.30311228,-1.7806228730000002
1092,Pr4Nd4Cr8O24,Pr,Nd,,Cr,,,O,4,1.40097275,-2.309149684
1093,Pr4Nd4Fe8O24,Pr,Nd,,Fe,,,O,4,44.92360775,-2.049773656
1094,Pr4Nd4Ga8O24,Pr,Nd,,Ga,,,O,4,74.56373534,-2.232121591
1095,Pr4Nd4Mn8O24,Pr,Nd,,Mn,,,O,4,39.69329769,-2.143438456
1096,Pr4Nd4Ni8O24,Pr,Nd,,Ni,,,O,4,124.72986509999998,-1.480975748
1097,Pr4Nd4Sc8O24,Pr,Nd,,Sc,,,O,4,25.08521475,-3.094964828
1098,Pr4Nd4Ti8O24,Pr,Nd,,Ti,,,O,4,54.82773069,-2.750761036
1099,Pr4Nd4V8O24,Pr,Nd,,V,,,O,4,23.21180706,-2.375510408
1100,Pr4Sm4Co8O24,Pr,Sm,,Co,,,O,4,35.07688959,-1.790861593
1101,Pr4Sm4Cr8O24,Pr,Sm,,Cr,,,O,4,0.0,-2.320202654
1102,Pr4Sm4Fe8O24,Pr,Sm,,Fe,,,O,4,48.18377975,-2.060146876
1103,Pr4Sm4Ga8O24,Pr,Sm,,Ga,,,O,4,82.92662983,-2.242498561
1104,Pr4Sm4Mn8O24,Pr,Sm,,Mn,,,O,4,42.81588044,-2.154099176
1105,Pr4Sm4Ni8O24,Pr,Sm,,Ni,,,O,4,134.67164240000002,-1.4910464680000002
1106,Pr4Sm4Sc8O24,Pr,Sm,,Sc,,,O,4,28.58352225,-3.103871798
1107,Pr4Sm4Ti8O24,Pr,Sm,,Ti,,,O,4,70.13978156,-2.750977005
1108,Pr4Sm4V8O24,Pr,Sm,,V,,,O,4,9.364902313,-2.378574878
1109,Pr4Sr4Co4Ni4O24,Pr,Sr,,Co,Ni,,O,5,139.928045,-1.319401221
1110,Pr4Sr4Co6Ni2O24,Pr,Sr,,Co,Ni,,O,5,118.3141068,-1.3910702519999998
1111,Pr4Sr4Co7Ni1O24,Pr,Sr,,Co,Ni,,O,5,89.54726266,-1.444864643
1112,Pr4Sr4Fe1Co7O24,Pr,Sr,,Fe,Co,,O,5,85.49364413,-1.510468069
1113,Pr4Sr4Fe1Ni7O24,Pr,Sr,,Fe,Ni,,O,5,200.7604929,-1.205171085
1114,Pr4Sr4Fe2Co6O24,Pr,Sr,,Fe,Co,,O,5,84.93486971,-1.547549104
1115,Pr4Sr4Fe2Ni6O24,Pr,Sr,,Fe,Ni,,O,5,183.5729925,-1.287925761
1116,Pr4Sr4Mn1Co7O24,Pr,Sr,,Mn,Co,,O,5,79.98594820000002,-1.532198794