composition,Eg (eV)
Zn0.85S0.85Ga0.15P0.15,2.4
K8Ce2I18O53,2.34
Rb3Al3Ge7S20,3.1
Ba3Er2P4S16,3.3
Li2ZnGeSe4,1.86
CaO,6.93
PbBiO2Br,2.3
Tl2GeTe3,0.36
Bi12TiO20,3.09
WSe2,1.57
PrLuSe3,1.56
BP,4.2
KSb5S8,1.82
Ga1.02Sb0.98Te0.06,0.68
VO2,0.66
GdTe,1.3
Pb0.59Ge0.41Te,0.49
ZnSe,2.83
CuZn2InTe4,1.05
Ba8Hg4S5Se7,1.98
GaAs,1.44
Pb0.9Se0.9Sn0.1Se0.1,0.24
CdSb,0.47
La2O2ZnSe2,3.4
AgFeSe2,0.23
CuBr,3.07
TlPSe2,0.5
In0.97As0.97Cd0.03Te0.03,0.71
WO3,2.7
Hg2Cl2,3.5
Sb2S3,1.69
K2Ag3Sb3S7,2.2
AgGaS2,2.73
InS,2.45
Bi1.98Te3Sb0.02,0.14
K2ReH9,5.71
TlPSe2,0.6
AgGaSe2,1.66
Eu3Se4,0.58
Ge0.999Si0.001,0.65
Hg2Cu3Te6O16,2.56
Ag8SnSe6,0.71
MgO,7.67
Bi2AsO4Cl,3.43
Cs2TeI6,1.5
ZnSnAs2,0.9
Cd4YB3O10,3.78
LiZnBO3,3.1
AgSbS2,1.88
TiTe2,1.0
Pb2SbS2I3,2.0
Cs3Bi2Br9,2.5
La3Mg0.5SnS14,1.71
ZnIn2S4,2.85
TlBiTe2,0.12
Sc2O3,6.0
InSe,1.12
GaSb,0.73
BaGa2SiSe6,2.88
Ba2InGdSe5,2.24
Cu3Ta7O19,2.47
GaP,2.77
PbTe,0.19
PbSe,0.14
K1.83Cd1.83Bi2.17S6,1.37
In4Te3,0.42
Ag3AsSe3,1.86
CsCd4In5Te12,1.42
Ce4Ge3S12,2.3
Tl2Hg3S4,2.05
CuGa3Te5,1.09
CuPbBiS3,0.12
CsCaBO3,4.2
Hg0.65Cd0.35Te,0.28
TlGaTe2,1.8
Cu3GdS3,1.62
Cu3TmTe3,0.14
LiBi3O4Cl2,3.35
As2Se3,1.81
TlCl,3.46
KSi2P3,1.72
NaNO2,3.13
NaBiS2,0.42
AgSbSe2,0.67
La2YbCuS5,1.45
In0.1P0.1Ga0.9As0.9,1.6
CdSe,1.82
Mg2Sn,0.14
ZnAs2,0.9
Ag7AsSe6,1.0
Ag2CdGeS4,2.32
InP,1.28
AgLi0.33Ti0.67O2,2.7
YbGa2Se4,1.8
Pb0.8Sn0.2Te,0.11
Ba4B11O20F,7.1
GaSe,2.11
CrSb2,0.14
ZnIn2S4,2.5
Cd3As2,0.12
Bi2Te1.2Se1.8,0.28
Cs2B4SiO9,6.53
Cs10Cd4Sn4S17,3.16
TlInS2,2.52
KIO3,3.71
Rb2Hg3Ge2S8,2.8
Rb2TeI6,1.4
SbSI,1.96
GeSi,0.88
Cs5P5Se12,2.17
NaAsS2,2.23
Ho2GeS5,2.5
La2Se3,1.7
TaGaS2,3.4
MnP4,0.28
K10Zn4Ge4S17,3.34
YbS,0.98
Tl2Au2Sn2Se6,1.2
LiInI4O12,4.27
TeSe3,1.87
Ga0.65Al0.35As,2.0
K2Bi8Se13,0.47
Zn6S5Cl2,2.71
CuInSe2,0.8
CuInTe2,0.88
CsCl,7.8
Pb0.999Se0.999Bi0.002Te0.003,0.79
Ag2O,1.57
Pb3B3O10N,3.64
MnVTe2O8,1.9
Cd0.99Te0.99Al0.01Sb0.01,1.6
KTbSe4,1.65
GaAs,1.42
SrBiO2Cl,3.52
FeSi2,1.0
Ho2Mo3O12,1.07
K2SmP2S7,2.59
K10Zn4Sn4S17,3.2
CdS,2.52
AlSb,1.7
Li0.2Na0.8AsSe2,1.57
Mg2Sn,0.35
Ba5V3O12F,3.85
LiI,6.0
NaCd4P3,1.1
AlSb,2.22
AlSb,1.49
ZnMoSb2O7,3.3
AsSeI,1.76
InS,2.06
In0.94As0.94Cd0.06Te0.06,0.68
TlN,1.4
NaInI4O12,4.25
ZnSb,1.09
AgAlO2,3.6
KF,10.3
PbSe0.9S0.1,0.27
AgAlTe2,1.9
Ba2AgInS4,2.32
PbTe,0.29
PtPAs,0.4
Tl2CeP2S7,2.4
LiPbSb3S6,1.6
Cd2V2Te2O11,2.48
TlCl,3.8
As2S3,2.45
SnGa4Se7,2.55
Ho2O3,5.42
Cd3P2,0.59
Ba2GaSbTe5,1.66
Hg0.7Cd0.3Se,1.1
PbSe,0.26
PbS,0.6
PbI2,2.54
GaAs,1.48
InP,1.41
In0.9Al0.1P,1.5
SnS,1.22
CdS,2.53
ZnO,3.35
K5In3P6Se19,2.2
H2Ti6O13,3.4
Li2B12Si2,2.27
PbSb2Se4,1.8
PdS,0.5
Cd0.9Te0.9Al0.1Sb0.1,1.36
KAuI4O12,2.75
CsCl,8.1
Ba3Tb2P4S16,3.37
KBiSiS4,2.25
Ba4Si3Se9Cl2,1.76
FeIn2Se4,1.15
FeSc2,0.77
Cs3Nb2AsSe11,1.35
K3Ta2AsS11,2.21
Ba5Ga6SnP12,1.21
DyIn3S6,1.22
Pb4V2Se6O21,3.37
EuGa2S4,2.25
ZnTe,2.28
PbCdP4O12,4.85
Mg2Pb,0.15
Na2CdSnS4,2.52
ThOSe,1.65
SbI3,2.22
CdIn2S4,2.0
HgSe,0.24
Tl3CuNb2Se12,0.8
YH2NO5,4.83
Mg3P2,1.4
Zn0.4Hg0.6Se,0.42
InSb,0.27
Rb3Sb2I9,1.94
In0.6Al0.4P,2.12
Li2CdGe,0.99
ZnSiP2,2.07
Bi2O3,2.91
CdTe,1.45
In6Se7,0.72
BaTiO3,3.04
NaInS2,1.9
CdGa2Se4,2.48
Cs2CdP2Se6,2.63
EuTe,1.96
Pb0.93TeTl0.07,0.54
ErBiW2O9,3.26
Cu2Se,1.29
LiAsSe2,1.5
LiGaGe2Se6,2.64
Eu3In2P4,0.45
GdAs,0.63
CsGaS3,3.0
AsNMg3,1.33
Ba2InErSe5,2.29
CsPSe6,1.9
Sb2Se3,1.11
BiSCl,1.89
Hg0.63Cd0.37Te,0.35
CdS0.8Se0.2,2.23
Gd2S3,2.55
Na2TeS3,2.35
AgPbBiS3,1.2
Hg4As2ZrCl6,2.48
BaBiO2Cl,3.71
CdSnAs2,0.4
CdGeAs2,0.85
RbYbZnSe3,2.07
CdGeAs2,0.72
Cd4As2Br3,1.78
NaInTe2,1.6
FePS,0.25
PtSb2,0.06
Tm2O3,4.53
PtAs2,0.8
K1.46Sn3.09Bi7.45Se15,0.39
NaBa2Cu3S5,0.45
GaN,3.39
RuS2,1.8
KEuAsS4,1.89
TlSe,0.65
Cu3YbSe3,0.2
Pb0.96TeTl0.04,0.57
Pr2Se3,1.9
Li2FeSnS4,1.86
InAs,0.47
PbGa2Se4,1.83
Mg2Pb,0.04
Ba2B6O11,5.17
As2B12,1.51
TlAsS2,2.22
PbO2,1.5
SeS,1.9
Pb0.99TeGa0.01,0.42
BaRh2Ge4Se6,1.09
CsGeI3,1.6
RbBiS2,1.36
Rb1.45Pb3.1Sb7.45Se15,0.45
SmTe,0.62
MgSiN2,4.05
MgTe,3.6
Ba2InDySe5,2.27
Ba4AgInSe6,2.41
KH3Se2O6,4.88
ZnTe,2.3
B2O3,4.89
BiFSeO3,3.83
Pb0.9Sn0.1Te,0.16
ZnIn2Se4,1.82
Ag2ZnSiS4,3.28
Bi2Te3,0.25
MoO3,3.66
Zn2In2S5,2.65
PbO2,1.7
Si2Te3,2.18
LaVI5O16,3.58
KBiS2,0.9
CdSe,1.7
BAs,1.45
CdSb2Se3Br2,1.4
BaZn2As2,0.23
ZnSnAs2,0.67
YbSb2S4,1.12
HgTe,0.15
CdTe,1.56
AgCl,5.13
CuInSe2,1.01
TlSbSe2,0.82
GeS,1.59
Th2GeSe2,1.98
Rb2Cu2Sb2S5,1.6
CuGaS2,2.43
Ba1.88Ta15O32,0.13
Cs6Na2Zn4Ge42,0.3
Cu0.35Ga1.65S2.65,2.53
Li4.5Ga0.5TeO6,4.99
KGaSnSe4,1.73
AlN,6.09
Cu0.95In1.05Se2.05,1.07
Cu2Te,1.08
CdIn2Se4,1.45
Cu2SnSe3,0.83
Hg0.8Zn0.2Te,0.08
BaSe,3.6
Zn0.3S0.3Ga0.7P0.7,2.3
TeI4,1.1
KSbS2O8,4.64
CdS0.99Se0.01,2.4
RbCl,8.29
Ba2InNdTe5,1.37
Ba2GaSmSe5,2.27
ZnI2,4.53
K2CuNbSe4,2.14
InBi2S4Br,1.5
Ga0.01P0.01Zn0.99Se0.99,2.6
TiS3,0.9
Hg2I2Te2,1.85
SbSI,1.92
Cs2MgSn3Se8,1.92
Ce10OSe14,1.93
K2P2Se6,2.08
CsAgSb4S7,2.04
WSe2,1.49
TlSe,0.79
Ca3Sb2,1.4
TlBr,3.07
Na8CsB21O36,4.67
Cu2P2S6,2.2
Ag3AsS3,2.2
SrTe,3.77
ZrNiSb,0.55
Mg2Sn,0.34
PtS2,0.75
CeFMoO4,2.52
Rh0.67S2,1.5
Nd4Ge3S12,2.62
GdB66,1.27
CuNb3O8,1.47
BaGa2SnSe6,1.95
Pb0.92Sn0.08Te,0.13
ZnS,3.66
Ge0.891Si0.109,1.13
Ba2GaSbSe5,2.51
La4InSbSe9,1.76
AgAlSe2,2.55
Pb0.999Sn0.001Te,0.23
BaF2,9.2
Ge0.8Si0.2,0.86
GaSe,2.13
InS,1.8
Ga0.8In0.2As,1.07
YbS,1.33
TlCu3Lu2Se5,2.12
GaTe,1.67
LiF,11.7
Cu0.99Ga1.01Se2.01,1.59
Gd3.04Sc0.96S6,1.5
Pb0.999TeGa0.001,0.3
CdTe,1.58
CdSiP2,2.25
Ba2ScTaO6,4.19
ZnSnSb2,0.4
La2MnNiO6,1.2
ZnIn2S4,2.7
Mg2Sn,0.31
Li2ZnSnSe4,1.87
TlInSe2,1.14
ZnSnSb2,0.3
RbH3Se2O6,4.84
Pb0.83Sn0.17Se,0.04
CdTe,1.6
Ga2Te3,1.32
Ba2InErTe5,1.35
CuI,3.12
SnS0.8Se0.2,1.07
Ga2GeTe3,0.84
Ge0.92Si0.08,0.72
Ge0.93Si0.07,1.04
Bi2I4O13,3.3
NaGe3P3,2.06
K2ZnSn2Se6,1.71
PtSe2,0.1
Cu2ZnSnTe4,1.39
AlVTe2O8,2.9
PtP2,0.8
AgAlTe2,1.8
Bi3In4S10,1.42
NaI,6.0
AlP,2.51
Ag2.7Ba6Sn4.3S16,1.38
SnGeS3,2.23
CaSm2S4,2.05
K8Al8Si38,1.4
BiSI,1.56
Ce2YbCuS5,1.37
Cu2O,2.59
PbCl2,3.82
CdGa2Se4,2.2
BaClBF4,6.89
Sn2S,0.95
Pb0.995TeTl0.005,0.48
GaAs0.99Sb0.01,0.7
Cs2Te,3.5
Th2Se5,0.37
Fe2TiSi,0.4
Hg0.1Zn0.9Te,1.74
PbGeS3,2.4
Na2KSb,1.0
Mn2.04Gd1.47In0.49S5,1.75
KAg2SbS4,2.2
TlCl,3.23
Cs2CuNbSe4,2.19
GaSb,0.67
CuAlSe2,2.5
La3CuGaSe7,1.36
Cu2CdGeSe4,1.2
Ba8Al10B12O41,3.1
Ga2Te3O9,4.15
HfS3,2.8
Pb0.95Sn0.05Se,0.12
ZnO,3.3
BiZn2VO6,2.4
Hg0.3Cd0.7Se,0.55
TaGaSe2,2.03
KFe2BiO5,1.76
Ga2Te3,1.33
Cs2Cd3B16O28,4.76
TlInTe2,0.68
CuCl,3.22
HfS2,2.9
Fe4I3O24H15,2.3
Cu0.35Ga1.65Se2.65,1.81
KIO3,3.87
K2AgSnSe4,1.8
SmTe,0.35
SmB66,0.8
Pr2Te3,1.16
CsSbS2,2.8
CdSe,1.74
Li6Al2Te8O22,3.63
Rb3Bi2Br9,2.62
SnS,1.25
Pr10OSe14,1.89
EuS,1.65
CuInSe2,0.92
CuGaSe2,1.68
Pb2B3O7.5H2,4.42
YbSb2Te4,0.34
Cs2Zn3Se4O12,4.3
CeScO3,3.2
SnSe,0.95
Ag3AsS3,2.1
Cu3AsSe4,0.88
AlSb,1.8
ZnTe,2.39
Tl2TeI6,1.47
AlB12,2.2
Zn0.9Hg0.1Se,1.75
ZnIn2S4,2.65
Cd4As2Br3,1.93
PbBr2,3.2
AlB12,1.9
Ge0.001Si0.999,1.09
Ga0.95Sb0.95Zn0.05Te0.05,0.85
LiPbB9O15,4.75
La2V2IO9,3.63
CuCl,3.4
Sn2SbS2I3,1.5
Cd3P2,0.56
Nd2Se3,1.7
Sm2O3,5.0
ZnS,3.58
TlInSe2,1.2
YbTe,1.8
RbZn4In5Se12,1.76
TlInSe2,1.4
Ga2Se2O7,4.61
DyTe1.7,0.35
InSb2Se4Br,1.35
CdTeO3,3.55
Cu2GeS3,0.53
Sm4InSbS9,2.13
Cs4Pb4Ge5S16,1.95
CsSmCdSe3,2.47
ErN,2.4
Hg0.25Zn0.75Te,1.25
RbMoPO6,2.96
RuPS,1.4
NaI,5.93
SrSeO4,4.75
SnSe,0.9
TlCr5Se8,0.67
TlInGeS4,2.3
La3Sb0.33SiSe7,1.75
CuInTe2,0.8
K2Cu2ThS4,2.17
K2Gd2Ti3O10,3.3
Hg0.8Cd0.2Se,1.1
As2Se3,1.8
K2ZnSn3S8,2.55
InP,1.29
Ga2S3,2.84
GaSb,0.8
CdP4,1.0
GaSe,2.01
Cu0.35In1.65Se2.65,1.19
Ba4Ge3S9Cl2,2.91
Zn0.85S0.85Ga0.15P0.15,2.9
NiS2,0.64
Na8Eu2Ge4S12,2.15
CaGd2S4,2.55
Ho2S3,0.5
K4Nb2S11,2.35
MoTe2,1.2
IrSe2,1.0
CdS,2.39
K2ZnSn3S8,2.15
Ga2Se3,2.05
Ir2Sn3Se3,0.43
Zn0.5Cd0.5Se,3.0
CuZr1.86S4,1.26
Hg0.8Cd0.2Se,1.3
BaHgSe2,1.56
La3GaGe0.5S7,2.54
CeF3,4.85
Cu3GdSe3,0.14
Ce2O2FeSe2,0.64
Dy4GaSbS9,2.58
Ru2Si3,0.7
CdP2,2.13
AgIn3Te5,0.68
InP2S4,2.75
Zn0.55S0.55Ga0.45P0.45,2.4
PbSeO4,4.3
ZnSnP2,1.45
Ba3SnSb2Se8,0.97
LiAlB14,2.05
Ga0.2In0.8As,0.5
AgS,1.4
Tb2Mo3O12,1.41
LaB6,4.1
NaAlGeS4,3.6
Ag2NbP2S8,2.02
LaGaO3,4.4
Na0.5Pb1.75GeSe4,1.6
As2S3,2.5
InP,1.25
CuGaS2,2.38
InAs,0.36
CaO,7.0
Ba4CuGa5S12,2.82
CsCdBO3,2.58
SmSnTe2,0.52
ThO2,3.5
BaTiO3,2.96
RuAsS,1.2
SbSI,1.85
CeIn3S6,1.11
AgTlSe2,0.72
GaS,2.5
CdS,2.41
CuCd2InTe4,0.85
GeAs2,1.1
KBiSe2,0.61
CdSe,1.83
AgSbS2,1.99
SrSe,4.42
PdP2,0.65
Na2GeIn2Se6,2.47
Ba2In2S5,2.47
BaCuSbS3,2.0
Na2ZnGe2S6,3.25
Sb2S3,1.67
GeSe2,2.49
K3Cr2P3S12,1.35
CdSe,1.9
YClMoO4,3.82
ReSi2,0.12
As2S3,2.56
Ag2MoI4O14,3.06
Cd3As2,0.53
HoN,1.88
GeS,1.77
CdSnAs2,0.5
In0.99As0.99Ga0.01P0.01,0.3
SmP,1.09
Zn3P2S8,3.07
GaP,2.75
Ga0.58As0.58Zn0.42Se0.42,1.67
CsYCdSe3,2.58
PdPS,1.38
Na2Ga2SnS6,2.2
Fe2P3B1O12,3.52
ReO3,2.3
Pb2BiS2I3,1.6
Li3AlP2,2.75
Cs2Sn3Sb2S10,2.34
TlHg6S4Br5,3.03
Rb3Sb,1.0
Ce2YbCuSe5,1.05
La3CuGeSe7,2.0
RbYTe2O6,3.6
LiIO3,4.37
CsCd4Ga5Se12,2.21
In0.5P0.5Ga0.5As0.5,1.75
ZnS,3.64
Cd6P7,0.85
Ag2S,1.03
Sb2Se3,1.1
HgS,2.1
CdGa2Se4,2.25
CdIO3Cl,4.3
Eu4Te7,0.31
GdIn3S6,1.13
In0.8P0.8Ga0.2As0.2,1.4
Li8GeN4,2.61
NaNbSe2O7,3.65
Pb0.85Sn0.15Te,0.1
AlSb,1.6
AgSbSe2,0.62
BiI3,1.81
EuVO4,3.44
Na2In2SiS6,3.27
NaScSe2O6,5.5
MoTe2,1.1
As2Se3,1.73
CdP4,0.91
Ba6Al4B14O33,3.44
Mg3B50C8,2.7
InP,1.45
BaCdSnS4,2.3
ZnSe,2.7
PbI2,2.56
Zn0.75Cd0.25Se,3.2
Li4Rb3B7O14,6.53
AgInTe2,0.93
AsTe,0.74
Pb2O3,1.67
K10Sn3P8Se24,1.82
Sm2ZrSe5,1.41
Ba5Ga2Se8,2.51
Ce15B8N25,3.5
In0.1As0.1Ga0.9P0.9,2.25
Sn0.5GaZn3.5O6,2.99
Cu2Se,1.3
CuIn5S8,1.34
BaGa2GeSe6,2.81
Ga0.25Al0.75As,2.42
Cs2Cu3DyTe4,1.38
LiI,5.9
Rb1.54Cd1.54Bi2.46S6,1.33
Cu2CdSnS4,1.4
CuGaSe2,1.36
Li2In2GeSe6,2.3
GaP,2.78
ZnTe,2.23
Fe2Te3,0.34
LiIO3,4.0
SrTiO3,4.1
CuGaInS3.5,1.84
KAg2SbS3,2.1
Tl2Hg3Se4,1.57
RbSbS2,2.13
La2YbCuSe5,1.15
In2S3,2.0
NaAsS2,2.33
Ag0.4Cd0.5In2.2Te4,0.19
Cs2Hg3S4,2.8
BiSeI,1.32
MgSe,5.63
CdIn2Te4,1.44
In4S5,0.9
YbClWO4,4.23
Ba3Ta5O14N,2.8
PbCdP4O12,4.87
Sr2SmTaO6,3.38
CsYbZnSe3,1.97
LiGaSe2,3.34
HfS3,3.1
Hg4As2HfCl6,2.47
CdSb,0.58
KBaSbSe3,2.04
BiSCl,1.93
RbMn4In5Se12,1.76
MnSe,2.5
Cu0.15In1.85Se2.85,1.32
KUO3Cl,2.37
CsTb9Cd4Se18,1.95
GeAs,1.65
Cd3MoTe2O10,3.81
ZnSnAs2,0.6
Pb0.7Ge0.3Se,0.4
CsInGeS4,2.4
BiTeI,0.46
GaTe,1.5
Cs2Cu2Sb2S5,1.6
Pb2H2P2O6,3.97
Na7.36Ga7.24Sn4.78Se24,1.5
GaTe,1.7
CeN,0.7
KYTe2O6,3.8
Rb4Ti3S14,1.59
BaGa2S4,4.13
CsCd4In5Se12,1.62
Pr4Te7,0.46
TeO2,3.0
CdGa2S4,3.4
KV2I3O13,2.3
GaSe,2.2
CaMg2N2,3.25
MgSe,6.0
Pr2.48Tb0.52Ga1.67S7,2.61
Zn3In2S6,3.05
Pb2Bi5.9La2.1S14,1.0
TlAsSe2,1.4
CsYbZnSe3,2.1
Cd3P2,0.52
PbSbO2I,2.48
Ba8Ga10Si36,0.31
Bi2O3,2.8
Pb0.83Sn0.17Te,0.15
KNb3Se2O12,3.46
ZnO,3.49
Tl3AsSe3,1.3
CdGa2Se4,2.1
CeMn0.5OSe,2.01
InSe,1.35
As2S3,2.36
ThOS,2.22
SmTe,0.22
Hg4As2.5InBr3.5,1.71
Li4.5Fe0.5TeO6,3.25
Bi25FeO39,2.8
Hg0.2Zn0.8Te,1.46
Bi2Te0.1Se2.9,0.78
PbSbBS4,1.8
ZnGa2Se4,1.72
CuBiP2Se6,1.2
Pb10B3O13Br3,3.25
AgGaS2,2.62
AgBiP2S6,1.7
SrThP2S8,3.02
UO2,2.18
CuGaSe2,1.7
DyB6,3.3
K1.25Pb3.5Bi7.25Se15,0.53
K2Cd2Te3,1.93
Gd4GaSbS9,2.41
NdCuOTe,2.26
CsBiS2,1.46
CdSiAs2,1.47
ZnS,3.88
PbBiBO4,3.2
Rb2Hg3Sn2S8,2.48
LiBi4Ta3O12,3.5
BaGa2SiS6,3.75
BaF2,9.06
BaTiO3,3.13
AlB12,2.5
RbAg2TeS6,2.04
Ba3P3O10Cl,6.89
Sm2Mn3Sb4S12,1.5
CdS0.35Se0.65,1.93
CoAs3,0.4
GeSe2O6,5.27
RbPSe6,2.18
Cu3ErTe3,0.24
KTaO3,3.5
SnS,1.09
In0.9As0.9Cd0.1Te0.1,0.69
CsZn4In5Se12,1.61
Na2KSb,1.1
Pb0.9Sn0.1Se,0.12
RbF,10.4
SbSeI,1.63
Zn0.75Cd0.25Se,3.3
Cu3DySe3,0.2
Bi12PO20,3.25
TlInSe2,1.12
AgGaSe2,1.8
LiNbO3,4.3
CuCl,3.31
CuCdInSe3,1.66
RuSbSe,0.9
Li4SrB2O6,6.67
As2S3,2.64
K4GeSe4,0.64
CdCl2,5.7
AlB12,1.96
Na4MgGe2Se6,2.53
AgI,2.82
TaON,2.4
Ba3BSbSe6,1.89
EuLu2Se4,1.7
GaP,2.74
As2S3,2.48
Na4MgSi2Se6,2.85
CaSe,4.87
CsCeHgSe3,1.94
PbGa2GeSe6,1.96
In0.96As0.96Cd0.04Te0.04,0.69
CsCu2AsS3,2.3
Sb2Se3,1.06
SrLa2S4,2.85
SrTiO3,3.0
InP2S4,2.42
EuSb2S4,1.2
BaGa4Se7,2.64
KRbBi8Se13,0.64
In0.4Al0.6P,2.3
CuFeSe2,0.16
Cd3As2,0.13
Ga1.01Sb0.99Te0.03,0.68
In0.4P0.4Ga0.6As0.6,1.74
Sb2Te3,0.21
Er2Mo3O12,1.04
GaSe,2.17
Ge0.1Si0.9,1.04
Y2S3,2.9
Ba3ZnTa2O9,4.32
CuBS2,3.61
Zn0.4Hg0.6Se,0.5
Ta2O5,4.2
Pb0.75Sn0.25Se,0.04
Cu2ZnGeS4,2.1
Cu0.2In1.8Se2.8,1.26
AgS,1.0
OsP2,1.2
RbZrPSe6,2.0
Bi2S3,1.2
Zn3P2,1.15
GeO2,5.63
CdSe,1.73
Ag2SnSe3,0.81
NdTe2,0.48
NaSbS2,1.8
Cu2GeSe3,1.1
Pb2GeSe4O12,4.1
CsSmZnSe3,2.43
Sb3O4I,2.61
NaBaB5O9,4.78
Bi2SeI2O11,3.7
Dy3Al0.5SiS7,2.22
TlCr5S4Se4,0.85
Nd2ZrS5,1.83
MnTe,1.35
LiInSe2,2.83
Ba3InS4Cl,3.42
EuVO4,3.26
CuGa3Se5,1.81
CsLaHgSe3,2.46
Mg2Pb,0.1
CdSe,1.77
NaAsSe2,1.71
TlSe,0.75
ReSi2,0.2
Zn0.99Cd0.01Se,3.7
NaIn3S5,2.18
TiC0.9,0.3
KPbB5O9,3.1
GaTe,1.63
In2Te,0.46
Cu0.4In1.6Se2.6,1.32
ZnSnAs2,0.65
BaS,3.88
Cu2In4Te7,1.1
PbTe,0.32
K2Au2SnS4,2.75
TlBr,3.4
K3NaSn3Se8,2.2
Rb2CuNbS4,2.64
AgO,1.57
CdS,2.55
OsSb2,0.3
SbSI,2.02
K2CuIn3Se6,1.68
Ce2Te3,1.22
KCd4Ga5Se12,2.16
EuGa2Te4,1.7
PbBr2,3.23
ScN,2.6
Ba3Gd2P4S16,3.41
K2CsSb,1.2
CoAsSe,0.2
Sm4GaSbS9,2.23
Hg3ZnS2Cl4,2.65
BeO,10.39
Ga1.05Sb0.95Se0.15,0.66
CdGeAs2,0.56
Na3WO4Cl,4.99
GeAs2,1.06
In0.01Al0.99P,2.4
Ba4CuGa5Se12,1.45
Ag3SbS3,2.05
CuFeSe2,0.15
Cu3ScSe3,0.3
RbBiS2,1.26
Hg0.8Zn0.2Te,0.07
AlN,6.28
In2Se3,1.18
HgSc,0.24
Pb4Sb6Se13,0.65
CdP4,0.99
CdSnAs2,0.26
Cs6.40Na1.60Ga8Ge38,0.22
NaYbP2S6,1.85
GaN,3.44
Rb3NaMo2O8,4.84
BeS,4.17
Ag7AsS6,1.0
Ga2S3,2.8
TlAsSe2,1.35
Ag0.2Cd0.75In2.1Te4,0.54
WSe2,1.45
NdCuOS,2.98
Zn0.99Cd0.01Se,3.6
ZnB12O24H10,4.6
CdTe,1.66
CdS,2.49
Cs2Hg6S7,1.63
CaB6,4.5
AgIn5S8,1.76
K4P8Te4,1.4
V2O5,2.36
CuBr,2.9
Hg2Br2Te2,2.06
ScNiSb,0.11
BaGa2GeSe6,2.22
Na2Te,2.3
In4As5O12Br3,4.22
CuBr,3.02
TaN,2.3
K4Ag9Sb4S12,2.0
K2Gd2Sb2Se9,1.33
RbBi3Se5,0.8
RuSbTe,0.5
BiI3,1.93
Zn0.7S0.7Ga0.3P0.3,2.5
ZnSiAs2,2.12
Dy3GaS6,2.81
La2Ga0.33SbS5,1.76
BaB2O4,6.7
CuSbS2,1.4
SmS,2.3
InSnAsSe,0.26
ZnSe,2.68
Cs4Zr3S14,2.35
CaNd2S4,2.7
CsSmZnSe3,2.63
PSe,2.5
Hg0.01Zn0.99Te,2.17
TlScSe2,0.79
Sb2Te3,0.28
Tl2O3,2.25
CdGeAs2,0.5
Mg2Sn,0.23
SrPb3Br8,3.2
KSbS2,1.67
RbCl,8.2
MnSb2Se4,0.31
K2TeI6,1.38
Na2TeSe3,1.87
Cd3As2,0.11
CsSb,0.61
CsZrPSe6,2.0
Zn2In2S5,2.68
Eu3Bi4S9,1.18
Ga0.01Al0.99P,2.49
RbBa2P5O15,7.6
LiMgBi,0.4
NaBiS2,0.44
CdGeP2,1.73
CoSb3,0.49
InSe,1.05
Bi25GaO39,2.99
Ba12In4S19,2.56
Cu0.1Ga1.9S2.9,2.65
Bi7F11O5,4.05
Zn0.01Cd0.99Se,2.4
Sr4Te3O8Cl4,4.0
BaIn2S4,3.06
AgInSe2,1.25
BaTiO3,3.06
SrGe2,0.9
Cu0.1Ga1.9S2.9,2.6
Cd4P2Cl3,2.24
In0.98As0.98Cd0.02Te0.02,0.73
GaSe,2.09
WO3,2.8
Na2Ga2GeS6,3.29
Ga0.5Al0.5As,2.12
CuScO2,3.3
Gd2O3,5.3
GaAs0.01P0.99,2.23
LiInS2,3.59
IrS2,0.9
MnI2,4.04
Eu1.83Ta15O32,0.23
Ga2Te3O9,4.14
In2Se,0.83
Ba3Sb2S7,2.4
RuPAs,0.8
KAg2AsS3,2.25
PrBN2,4.0
Sr3Se3O8Cl,4.4
LiBr,7.5
Cd0.95Te0.95Al0.05Sb0.05,1.37
Cs2Ga2Se5,1.95
Cd3P2,0.58
Zn3In2S6,2.8
RbBi3Se5,0.43
CuInSe2,1.07
InAs,0.28
Cu2Te3O8,2.64
EuSnTe2,0.6
CuI,3.05
Ba2InDyTe5,1.35
GaAs,1.53
CsSmHgSe3,2.37
Ca3B2N4,3.9
Pb0.8Sn0.2Te,0.08
EuSb2BO8,3.46
K4Hf3Se14,2.02
NaCeS3,2.15
PbSnS3,1.05
Si2Te3,2.16
LaTaN2O,2.0
Cs4Ta4P4Se24,2.38
EuEr2Se4,1.7
BaGe2,1.0
TlInSe2,1.18
Bi2CrI2O11,2.4
Ga0.85As0.85Zn0.15Se0.15,1.47
Pr2Te3,1.5
EuGa2Se4,2.16
Na2ZnGe2Se6,2.36
In2Se3,1.42
Pr2Te4O11,3.65
CoP3,0.45
TlInTe2,0.7
ZnIn2Te4,1.95
RbCu2SbS3,1.67
Tl2Hg3Te4,0.9
Cr2S3,1.1
InN,1.95
Cu2O,2.58
Er2Te3,0.9
Rb8Ga8Si38,1.18
AgSbTe2,0.6
Li2In2GeS6,3.45
SnBr2,3.5
ThO2,3.3
Bi8Te7S5,0.4
PbGa2SiSe6,2.17
Li2ZnGe,1.1
Na2RbSb,1.0
TaGaS2,2.56
K2Hg3S2.69Se1.31,2.28
In0.3Al0.7P,2.3
GaTe,1.74
SrS,4.76
In2Se3,0.97
MnTe9,2.0
LiCl,9.33
TlSe,0.73
CuIn2S3.5,1.43
Cu2ZnSiS4,3.25
Pb0.93TeGa0.07,0.34
HgCuSe2O6,3.25
LiBiS2,0.11
CaBi2O4,3.08
Tl3VS4,1.76
DyTe1.40,0.6
Rb3ZnB5O10,2.66
Li0.5Pb1.75GeS4,1.95
Cu2ZnSiS4,3.0
SnS,1.08
Mn1.95GdIn1.05S5,1.66
BiI3,2.0
Ge0.97Si0.03,0.67
Hg0.72Cd0.28Te,0.21
Pb0.98Te0.98Ge0.02S0.02,0.34
CsHo9Cd4Se18,2.06
CuInS2,1.52
TlCl,3.2
La2BaTe5O14,3.81
RbSbSe2,1.62
VO,0.3
Ag2Ga2SiS6,2.35
RbCu2AsS3,1.96
Pb0.99Sn0.01Se,0.26
CoAsS,0.6
Ba3La3Cu6O14,1.8
BiI3,1.92
Zn4Sb3,1.0
Cu0.01In1.99Se2.99,1.45
K2Au2Sn2S6,2.3
TaGaS2,3.6
Ba7Sn5S15,2.29
Se3Te,1.87
Al2Se3,3.15
Cu0.2Ga1.8S2.8,2.65
NaLa2TaO6,4.5
MoO3,3.7
ReSi2,0.13
Cs3Sb2Br9,2.3
AgSbSe2,0.74
Ca3N2,1.55
InAs,0.45
Cu3SmTe3,0.23
KCeSe4,1.54
BaAl4Se7,3.4
K2Bi8Se13,0.59
PbSe,0.35
Fe2Te3,0.6
NaCdAsS3,2.93
Zn3P2,1.2
V2O5,2.54
Zn0.55Hg0.45Se,0.8
TlSe,1.3
Li2CdSnS4,3.26
Rb2Cd3Se4,2.37
SmSe,0.46
In0.8As0.8Ga0.2P0.2,0.85
BaS,3.9
Li4Cs3B7O14,6.53
Rb2Cd3S4,2.92
GaTe,1.78
CdSc,1.71
CdSnP2,1.4
NaSmP2S6,2.54
CdAs2,1.04
AgGaS2,2.56
PtP2,0.6
Gd2Te3,0.74
PbS,0.29
Ag3AsSe3,2.07
KSb,0.9
CaZnOS,3.7
PtSb2,0.07
BaAuI5O15,2.32
Mg2Co,0.66
Ag2SnSe3,0.7
CdSe,2.27
AgGaO2,2.2
Pb0.85Ge0.15Te,0.36
CuGaS2,2.44
EuS,1.69
AgS,0.85
Pb0.95Se0.95Ge0.05S0.05,0.29
Bi4V2O11,2.0
Ga2Te3,1.5
HgIn2S4,2.0
Li4.5Cr0.5TeO6,1.79
ErIn3S6,1.28
GeSe,1.16
Pb0.95Se0.95Sn0.05Se0.05,0.22
K8Zr6Se30,1.91
Sr5V3O12F,4.5
AgFeTe2,0.28
CdS0.65Se0.35,2.13
HgSnO3,1.6
EuTe,2.0
RbCu2VS4,1.45
Pb6B4O13H2,3.24
SnS0.4Se0.6,1.02
InSb,0.17
LaZnAsO,1.5
CaLa2S4,2.7
Ba2GaErSe5,1.95
NaBr,7.5
Se0.4Te0.6,0.7
Rb3Bi2I9,1.89
Cd12Ge17B8O58,4.29
Ca2ScSbO6,3.68
Cu1.8S,2.3
LaNbON2,1.7
CdP4,0.9
RbIn5S6,2.5
AgFeTe2,0.31
GaSb,0.77
SnTe,0.36
AlBi,0.4
Rb2AgVS4,1.83
Sm3Al0.33SiS7,2.26
NaInSe2,2.8
LaP,0.54
AgI,3.01
CdIn2Se4,1.57
TiS2,1.95
Zn0.15Cd0.85Se,2.6
CuCl,3.29
CsLu7S11,1.86
FeP4,0.32
CsSbS2O8,4.68
OsSbSe,0.4
In0.5As0.5Ga0.5P0.5,1.55
ZnTc,2.37
Ba2ZnSe3,2.75
Cu3YSe3,0.88
Ba2GaYSe5,2.31
AgSO4,0.18
CdS,2.64
Ce4Te7,0.5
BaSbBS4,2.34
Li2FeGeS4,1.42
Ce3LuSe6,1.1
Ga1.05Sb0.95Te0.15,0.68
CsInTe2,2.16
Ga1.005Sb0.995Se0.015,0.64
TaGaS2,2.53
PrAs,1.0
Li4.5Al0.5TeO6,4.9
K2Cd3Se4,2.36
Pb0.72Se0.72Sn0.28Te0.28,0.12
AgBr,2.52
Ba2Ga8GeS16,3.0
ZnGeN2,2.9
Ba3Ho2P4S16,3.3
RbCl,8.1
Hg5AsS2I3,1.57
Cd3BiP3O12,3.9
EuH2,1.85
NaNO2,2.99
BaZnOS,3.9
InBi2S4Cl,1.5
TeI,1.1
Rb2PtI6O18,2.4
BiSeI,1.3
Cs1.43Cd1.43Bi2.57S6,1.28
InP2Se4,1.29
PbCl2,4.1
PbO2,2.0
Cs2Ga2S5,3.26
Pb0.75Sn0.25Te,0.04
Pb3Br2Se2O6,3.73
Ba4Ga2S8,2.55
CuGa0.4In1.6S3.5,1.55
V2O5,2.34
K3Nb2AsSe11,1.53
Cu0.3Ga1.7S2.7,2.55
Ru2Si3,0.44
SnBr2,3.4
Li2Ga2GeS6,3.65
SbSBr,2.21
Cu3DyTe3,0.34
MoSe2,1.6
LaInS2O,2.73
Hg6.5As4CdCl6,1.86
K2MnSn2Se6,2.0
Ga1.02Sb0.98Se0.06,0.63
Ga0.7Al0.3As,1.81
CuInCd2Te3,0.7
Tl2TeBr6,2.06
CuNiC4N4,2.7
BaGa2Se4,3.16
Ga0.8Sb0.8Zn0.2Te0.2,1.15
EuDy2Se4,1.8
Tm4Sb2Se11.68,1.22
MoO3,3.75
RbHgSbTe3,0.2
OsPSe,1.4
Li0.2Na0.8AsSe2,1.72
PbTe0.01Se0.99,0.26
Pb0.93Sn0.07Se,0.08
BaV2SeO8,2.13
La4FeSb2Se10,0.85
B6P,3.3
Ba5Ga6GeP12,1.39
ErB6,3.5
Ga0.99Sb0.99Zn0.01Te0.01,0.72
TlCr5S6Se2,0.94
AgScP2Se6,1.55
YbAs,1.02
Sb2Te3,0.22
CdIn2S4,2.2
BiSeBr,1.54
In6Se7,0.64
Ag0.5Eu1.75GeS4,2.14
GaAs0.9P0.1,1.5
ZnIn2Se4,2.0
Na2BaSnSe4,2.46
SbSI,1.84
Cs2AgVS4,1.77
MoTe2,1.08
Pb6BBrO7,2.84
EuIr4In2Ge4,0.26
Pb0.85Se0.85Ge0.15Te0.15,0.32
Na2ZnGe2S6,3.04
LaCuOS,3.1
PbSe,0.31
Pb3O4,2.12
K2Hg3Ge2S8,2.7
CaSe,5.0
BiSI,1.58
Ba8Sn4S15,2.31
AgInSe2,1.22
VO2,0.65
CsCdInSe3,2.4
Sm2Sn3Se9,0.7
LaSb,0.8
K6CdTe4,2.51
Ag2PdO2,0.18
BaAgSbS3,2.2
Hg6As4CdBr6,1.94
GaAs0.3P0.7,2.16
Ba3CdSn2S8,2.75
AsSb,1.6
AgLi0.33Sn0.67O2,2.7
Li2MnGeS4,3.06
Ag3Ga3SiSe8,2.3
K0.8Hg1.2Sn2S8,2.78
Bi1.8Te3Sb0.2,0.15
Cs2Sb,0.62
Nd10OSe14,1.98
KCu2SbS3,1.7
Li6Ga2Te8O22,3.85
Hg7InS6Cl5,2.54
BiOI,2.12
Na2GdP2O8,4.19
Ba3V2Se4O16,2.87
Zn0.95S0.95Ga0.05P0.05,3.0
Cu2Te,1.15
GeAs2,1.0
FeAsS,0.06
Cu3VS4,1.0
TaGaS2,2.4
RhAs2,1.15
Ca3BiP3O12,4.2
BeSe,4.0
BaSn2S5,2.35
Pb0.97Se0.97Ge0.03S0.03,0.28
SmSb2BO8,3.54
CsYZnSe3,2.29
Sn2S,0.85
GaGeTe,1.1
YbSe,1.5
La2O3,5.4
Ga2Se3,1.86
Ag2CdP2S6,2.49
Ga0.01As0.01Zn0.99Se0.99,2.59
K2Cd3S4,2.75
PbSbO2Br,2.67
Ba2InNdSe5,2.2
CsCd4Ga5S12,3.09
Rb2HgP2Se6,2.32
KH3Se2O6,5.03
Ba2GaDySe5,2.35
MgF2,11.1
Zn0.99S0.99Ga0.01P0.01,3.7
Ga0.5P0.5Zn0.5Se0.5,2.13
KBaAsSe3,2.26
CsSbSe2,1.7
InS,1.86
CdP2S4,3.76
NiC2N2,2.0
AgPbBiSe3,0.13
OsAsS,1.3
Rb6P3S15,2.3
RhSe2,0.6
Bi2Te2.1Se0.9,0.3
Nd3Te4,1.6
Ge0.7Si0.3,0.88
InSn2As2Se,0.2
NaNbSe2O7,3.8
Se0.6Te0.4,1.2
In0.95As0.95Cd0.05Te0.05,0.68
In4Se3,0.65
K6Yb3P5S20,2.6
In0.5Al0.5P,2.3
GeP,0.95
Nd2Sn3Se9,0.5
TlInSe2,1.07
KBiS2,0.92
SmCuOSe,2.6
Cs2CuP3S9,2.4
Ba2AsGaSe5,1.39
Ta0.67Zr1.33O1.89N1.63,2.48
CsDy9Cd4Se18,1.99
InSb0.9As0.1,0.27
AlN,6.2
NdAs,1.04
AgInCd2Te3,0.47
In0.93As0.93Cd0.07Te0.07,0.68
SiTe2,2.18
GeS2,3.6
Ga0.01Sb0.01Cd0.99Te0.99,1.35
Mg5B3O9F,5.63
Al2Te3,2.5
KAlGeS4,3.5
CsCeCdSe3,2.4
RuP4,0.64
TcSe2,0.88
InN,2.05
LaSi2,0.19
Ge0.06Si0.94,1.06
KSb5S8,1.67
Pb0.97Se0.97Sn0.03Se0.03,0.29
Hg0.6Cd0.4Se,0.95
BaLa2In2Se7,1.66
RbSbS2,1.96
Ga0.75P0.75Zn0.25Se0.25,2.18
La2ZrS5,2.01
MgGeN2,4.4
Bi2Te2.97Se0.03,0.15
BaReH9,3.44
Hg3Te2Bi2Cl8,2.8
Ta1.33Zr0.67O0.12N3.03,1.71
ZnSnAs2,0.74
Bi2O3,2.85
Pb0.8Ge0.2Te,0.4
Pb0.92Sn0.08Te,0.16
MnSi,0.6
K2PdSe10,1.48
CsCuSb2S4,1.7
Li6Fe2Te8O22,1.98
CsAg2TeS6,2.04
KAg11V4O16,2.0
Ce2Se3,1.75
La2MnNiO6,1.4
GaAs0.7P0.3,1.8
Li3PS4,3.68
SrNd2S4,2.45
Hg0.796Cd0.204Te,0.06
Ba2GaGdSe5,1.87
TlCr5S3Se5,0.8
Pb0.7Ge0.3Te,0.48
HgSe,0.12
CdI2,3.8
GeAs,1.01
Li3Bi,0.7
EuIn2S4,1.5
Rb3Sb2Br9,2.48
SnO2,3.6
LaS1.86Se0.14,2.5
Ag2GeTe3,0.25
Dy4S4Te3,1.43
Ca2CdAs2,0.95
Bi2Te0.9Se2.1,0.28