mpid,formula,gap pbe
mp-778893,Li32Mn3Cr13O48,0.9811
mp-769719,Li4Cr3NiO8,0.0
mp-25544,KMnO2,0.0
mp-7926,TaSe2,0.0
mp-630836,Nd3(GeRu)2,0.0
mp-559776,Li5La3Ta2O12,3.9719
mp-27849,TiBrN,0.5597000000000001
mp-13208,Mg2Pt,0.0
mp-775017,Fe3Ni(PO4)4,0.0
mp-562284,LaYbS3,0.0
mp-773721,Mn2Cu(PO4)3,0.0
mp-765762,Li4V3P8O29,0.5385
mp-684000,Eu2Si3Ni8,0.0
mp-684525,Cu2Se,0.0
mp-722684,KAlP4(H2O7)2,5.653
mp-1034945,RbHfMg14O15,0.0
mp-1097794,Ti2H2O3,0.0
mp-771080,Li2NiBO4,1.2049
mp-776514,Li2FeF6,0.3129
mp-650112,Fe3O4,0.9625999999999996
mp-1078200,V2CoSe4,0.0
mp-530217,PrZr3F15,5.4677000000000024
mp-504233,Li4Ni5(P3O11)2,3.2739
mp-865362,Zn3Ir,0.0
mp-540453,Li4FeP2O9,0.2664
mp-1094138,NaCo2P2O9,0.2414000000000001
mvc-13997,AlVO3,0.0
mp-11467,NdHg,0.04959999999999986
mp-850,ScNi2,0.0
mp-761492,Co11CuO16,0.0
mp-13163,TbZnSn,0.0
mp-10030,RuC,0.0
mp-972542,SmTlAu2,0.0
mp-558206,K9U6BiO24,1.7042000000000002
mp-558628,KLi2BO3,3.999
mp-11984,YMgTl,0.0
mp-28423,Ga2TeSe2,1.6077
mp-29116,Ta3SeI7,0.5727000000000002
mp-604008,CeAlRu,0.0
mvc-6090,Mg2TeWO6,1.6119999999999997
mp-680724,Lu(BO2)3,5.8459
mp-776862,Mn2P2H7NO10,0.7942999999999999
mvc-15076,Zn(FeO2)2,1.8753
mp-765934,Li2FeP2O7,3.6668
mp-17439,KSm(PO3)4,5.2969
mp-861507,ScAlIr2,0.0
mp-774502,NbSb3(PO4)6,0.0
mp-774027,Sr24Fe16O55,0.0
mp-567339,PrOs2,0.0
mp-29832,Sm10Se19,0.27010000000000023
mvc-5357,TaAsO5,2.4501
mp-25647,LiWO2,0.0
mp-25057,VMoO5,1.9451
mp-1076208,K5Na3Nb4(WO5)4,0.4755999999999996
mp-1001925,LaC,0.0
mp-675391,Tl2Fe3Se4,0.0
mp-777600,Mn8O13F3,0.0
mp-24882,NdCoO3,0.03519999999999968
mp-770082,CoPbO3,0.0
mp-567181,ZrRh,0.0
mp-762895,Co2C2O7,0.7939
mp-864798,HfZnIr2,0.0
mp-977380,LiMg2Pd,0.0
mp-761680,Li2CrSi4O11,0.9435
mp-685257,CdPbO3,0.0
mp-684969,Sc2S3,0.9279999999999996
mp-1094487,YMg,0.0
mp-1094186,LaMg5,0.0
mvc-6675,ZnCuMo2O7,0.23039999999999994
mp-1099306,CsMg6Co,0.0
mp-1038038,LiMg30MnO32,1.4303
mp-1026510,Mg14NbMo,0.0
mp-27241,K2SbCl5,3.2507
mp-22680,DyInCu2,0.0
mp-766258,Y13Tm3O24,3.991
mp-765116,Li2Fe2C2O7,3.2713
mp-14659,KAsSe2,1.6433000000000002
mp-550714,PbO,2.2295
mp-25684,Co3AgP3(HO6)2,2.4628000000000005
mp-1411,TaS2,0.0648
mp-31144,Rb3Au7,0.0
mvc-10616,Be3V2(SiO4)3,1.8777000000000004
mp-10582,Ca5P12Rh19,0.0
mp-697027,NaSi2(HO2)3,5.078799999999998
mvc-782,ZnCr4O6,0.0
mp-558131,Sm2Tc2O7,0.2511999999999999
mp-868382,La14Mn13O42,0.0
mp-21705,K2In3AgSe6,1.0658
mp-775294,LiCr3P4O15,2.2298
mp-21866,Dy2InAu2,0.0
mvc-2501,Sr2AlTlFe2O7,0.0
mp-1002081,KNaICl,4.0086
mp-865113,NaNdAu2,0.0
mp-570655,Tb10B7C10,0.0
mp-15492,DyTa7O19,3.2223
mp-676923,Cd2Bi6O11,1.8321
mp-541038,U(MoO4)2,0.034900000000000375
mp-995192,RbBaSiHO4,3.9078
mp-669528,Na2UO4,2.0003
mp-540577,KZr2(PO4)3,4.3082
mp-3872,Mg(AlS2)2,3.0678
mp-753990,BaY2F8,6.276
mp-25599,NiO2,0.019699999999999995
mp-764128,Na3Fe2(PO4)3,2.1844
mp-13010,YSn2,0.0
mp-755074,CeOF,0.0
mp-675678,Nd4Ag2Se7,1.5042
mp-850239,Mn2V3O12,0.0
mp-758054,LiAgF4,1.0302
mp-554302,Cs2NaMnF6,0.0
mp-560458,Rb2U2O7,1.6672
mp-865967,Ce5Al2Ru3,0.0
mp-573523,Sr8Fe3N8,0.0
mp-631466,KSc2Co,0.0
mp-761636,Cr3Co(PO4)6,0.0
mp-542264,BaNaCe2C4O12F,0.16579999999999995
mp-676020,BaCO3,4.017799999999999
mp-1039609,RbMg30SbO32,2.6984000000000004
mp-777222,LiFeBO4,0.7645
mp-22856,Bi2S3,1.3617999999999997
mvc-14930,Ca3Mn2(IrO6)2,0.0
mp-13141,HgTe,0.0
mp-224,WS2,1.597
mp-505045,Na5(InTe3)2,0.8645
mp-1030999,NaCeMg6O8,0.0
mp-22156,Hf2InC,0.0
mp-1077175,DyCuPb,0.0
mp-556040,CaS2(ClO3)2,4.6536
mp-552234,SrBiBrO2,3.1575999999999995
mp-1078358,LiOsO3,0.0
mp-1093721,ScHg2Pd,0.0
mp-762846,Li3Fe2(PO4)3,2.2006
mp-1079844,ThGaIr,0.0
mvc-2422,Zn2Fe9O13,0.6078999999999999
mp-6524,CaMg3(CO3)4,4.8153000000000015
mp-504751,AsHPbO4,2.9932000000000007
mp-557508,NaLaH2S2O9,4.6572000000000005
mp-684817,K2LiTa6(PO8)3,3.0471
mp-652716,CuMoO4,0.0
mp-4193,Tm9(FeGe)10,0.0
mp-729,Cr3Si,0.0
mp-21659,Hf3(NbGe2)2,0.0
mp-20697,ZrNiSb,0.06900000000000084
mp-572634,Al2AgCl5O,3.4407
mp-5621,NbCu3S4,1.6574
mp-1073695,MgSi,0.0
mp-566496,HoMoO4F,3.736
mp-27345,Na3BiO4,0.9646
mp-631504,BaSiTc2,0.0
mp-1076598,La7SmMn2(FeO4)6,0.0
mp-866075,MgTaIr2,0.0
mp-34337,H4NCl,4.9341
mp-1028312,CsMg14V,0.0
mp-19898,LaGeRu,0.04050000000000065
mp-865780,TiMn2Ga,0.0
mp-754494,BaLaBr5,2.9074
mp-774269,LiFePO4,2.5969
mp-780835,Li5FeO3F2,2.7841
mp-759526,Bi2O3,1.7255000000000005
mp-1095545,ZrTc2,0.0
mp-865004,Dy2ZnOs,0.0
mvc-4868,CaSnO2,0.0
mp-542332,K2Cu(CO3)2,0.6847999999999999
mp-698797,Sr3La9Mn10(CuO18)2,0.0
mp-1022513,Mg6ZrCo,0.0
mp-770707,Li2AlFeO4,3.069500000000001
mp-18532,HoPS4,2.1507
mp-762227,V(CO3)2,1.2893
mp-555674,LuMn2O5,1.0698000000000003
mp-853255,LiFeP3H8O13,3.6786
mp-505537,Al3(Co10B3)2,0.0067000000000003715
mp-770128,Cs6Ti2O7,3.333
mp-780117,Li4CoO3F,1.3904
mp-570592,Tb4CdCo,0.0
mp-690979,Li9Nd6Sb3TeO24,3.2456000000000005
mp-772552,Li6CrO4,1.8237
mp-764064,Mn3(OF2)2,0.0
mp-1100653,Li9Mn2Co5O16,0.0
mp-603592,Na2Mo(H2O3)2,3.3666
mp-767743,LiFeSiO4,2.8325
mp-510559,Na(CoO2)2,0.581
mp-601837,MoH2(CO2)2,0.0
mvc-9586,Zn(SbO2)2,0.1817000000000002
mp-763868,Li2VCr(P2O7)2,2.1997
mp-18772,Na4Mo(NO)2,2.2033
mp-762871,Fe2CuAs2(HO5)2,0.7757000000000001
mvc-11226,AlCoO3,0.0
mp-573101,K6CoMo5O19,2.805
mp-699602,Li3Mo2P3O14,1.2828000000000004
mp-6945,SiO2,5.5482
mp-1074957,Mg3Si4,0.0
mp-20920,TbIn3,0.0
mp-686086,Tl9SbTe6,0.4892000000000003
mp-8696,K3Na(SeO4)2,3.5425
mp-771132,Ba3Ga4O9,2.9232
mp-1037800,YMg30FeO32,0.0
mp-4824,NaZnP,0.9143000000000004
mp-555516,H5(NO)3,3.2338
mp-1039695,NaMg30GaO32,4.0688
mp-33216,Pu2O3,0.0
mp-758953,P2H12BrN7,4.3765
mp-684427,LiSb(PO3)4,4.5289
mp-1080789,Sb2Te3,0.0
mp-566293,K3Gd5(PO4)6,2.7396000000000003
mp-770165,Li2FePCO7,2.4418
mp-762249,V(CO3)2,1.5659999999999998
mp-1029190,Te2MoW3(Se2S)2,0.0
mp-36329,SrUO4,1.9691000000000003
mp-676894,Nb40(NO)17,0.0
mp-568634,Yb3(Ga2Ge3)2,0.0
mp-1039142,Ca3Mg,0.0
mp-1016600,Mg6NbBi,0.0
mp-1068797,Nd(GeAu)2,0.0
mp-554145,Na3SrPCO7,4.0616
mp-20048,U(Ni2P)2,0.004400000000000404
mp-571624,Dy3Al2,0.0
mp-767879,Li3VPCO7,2.5534
mp-971761,ZnSi3,0.0
mp-1104,LaMg,0.0
mp-1096273,Mn2CrFe,0.0
mp-971826,Tl3H,0.0
mp-780103,Fe4O5F3,0.0
mp-2752,Nb3Au,0.0
mp-559138,Ba2Zn(BO3)2,3.6265
mp-557001,RbSO4F,2.4272
mp-767115,LiMn2O3F,1.1188000000000002
mp-29013,Ca14Si19,0.0
mp-566780,Gd2Mo4O15,2.5091
mp-542656,Cs2AlP3O10,4.9085
mp-1040459,NaFe3P3O13,0.0
mp-1097065,Li2HfN2,1.9279
mp-1078385,SrZnO5,0.0
mp-18755,NdMnSbO,0.0
mp-504539,CaLu2O4,3.9028
mp-1098682,CaMg30CuO32,0.19750000000000068
mp-18728,NaFe2O3,0.0
mp-1018276,CeGa,0.0
mp-772341,Ti3MnCr(PO4)6,0.0
mp-628680,K5Th(PS4)3,1.9602
mp-972891,ScBe13,0.0
mp-707746,CaAl2Si3H6O13,4.9624
mp-1168,HfTe5,0.001200000000000756
mp-770641,LiMn7O12,0.0
mp-585387,LiCoPO4,0.7424999999999997
mp-540349,FeP2O7,0.0628
mp-530251,Ti20(Sb3Se)3,0.0
mp-778685,LiFe(SiO3)2,3.273
mp-690118,Mn2TcO4,0.1833
mp-866684,RbTh3F13,5.8107000000000015
mp-997512,Li3Cr2CuO6,0.4118000000000004
mp-867838,AcAu3,0.0
mp-560898,NaPr(SeO4)2,3.3477
mp-11,As,0.0
mvc-10485,ZnBi4O9,1.0380000000000005
mp-571069,Ba3(CdSb2)2,0.0
mvc-6093,Zn(FeO2)2,1.661
mp-30779,SmMg3,0.0
mp-23885,SrH12(ClO3)2,5.047499999999999
mp-999204,ScAl3,0.0
mp-1025838,Te2Mo2WS4,0.07819999999999983
mp-17786,Ba(SmTe2)2,0.7957000000000001
mp-865896,YbPmAg2,0.0
mp-14100,Cd(RhO2)2,0.8366999999999996
mvc-9181,ZnCoBiO5,0.1259999999999999
mp-776893,LiV4O5F7,0.6233
mp-1056985,TiPd,0.0
mp-1028233,Mg14AlSb,0.0
mp-16488,Al9Co2,0.0
mp-13005,LaCrGe3,0.0
mp-1031483,Mg6VBiO8,0.0
mp-972623,SmHgAu2,0.0
mp-581114,Cs2YSi4O10F,4.8312
mp-705331,LiNiP2O7,0.0
mp-13042,NaSr3TaO6,3.8787
mp-698457,NaLiH4C2O5,4.616300000000002
mp-971788,VRu3,0.0
mp-1018119,VCoSn,0.0
mp-2661,SrSi,0.0
mp-865028,AcTlTe2,0.6253000000000002
mp-1027840,Mg14ZrCd,0.0
mp-4606,U(Al2Fe)4,0.012800000000000368
mp-17648,Yb5Si3SO12,0.10210000000000008
mp-972353,U3Pa,0.0
mp-983586,Ac2SiHg,0.0
mp-865161,Dy2AgRu,0.0
mp-9384,CsAu3S2,2.3501
mp-1093668,Ca2CdAg,0.0
mp-862915,Er2Mg,0.0
mp-27987,BrF5,3.4378
mp-755723,Er2Pb2O7,0.9168999999999996
mp-562499,Yb3Ga5O12,0.0
mp-22609,Eu(CdP)2,0.014800000000000146
mp-849394,Li2MnSiO4,2.9643
mp-559593,PS3N5F2,2.5324
mp-626483,H4SO5,5.2943
mp-733610,H7C3N3O5,4.7405
mp-685055,CrTe2,0.0
mp-12603,ScSnPt,0.0
mp-1023052,YMg6Co,0.0
mp-5889,Er2Ti2O7,2.7882
mp-765031,MnOF,0.8831
mp-2621,ErAg,0.2850999999999999
mp-1078767,HfAlNi,0.0
mp-769584,NaMnPCO7,0.8646
mp-983061,Sr(AsO3)2,3.2452
mp-31739,Li2CrP4O13,0.2221
mp-676009,Na3Cr11Se20,0.0
mp-1016287,KMg3,0.0
mp-866811,CaSnS3,0.7503000000000002
mp-690090,Ti(FeO2)2,1.1230000000000002
mp-5177,LuSnAu,0.0
mp-625996,NaHO,2.9317
mp-1080538,CuBr4(NO)2,0.20920000000000005
mp-973447,KBaO3,0.0
mp-764041,Na4NiO4,0.7785
mvc-11225,AlFeO3,0.0
mp-699489,CsTiH24(SO10)2,0.0
mp-765525,Li2VOF5,3.2968
mp-694683,Li2NiP2O7,4.1160000000000005
mp-2269,UTe,0.0
mp-1022793,CsYMg6,0.0
mp-972916,MgCu,0.0
mp-27321,Na3(CuS)4,0.0
mp-9488,SmOF,4.6648000000000005
mp-570062,ZrTiSe4,0.0
mp-558717,LiUAsO6,2.2644
mp-694948,TiFeO3,1.4863999999999995
mp-1033319,Mg6BWO8,0.0
mp-16094,Ba6Si25,0.008399999999999963
mp-622636,TmInCu2,0.0
mp-1030903,LiMg6SiO8,0.0
mp-765877,Li5NiOF5,1.7733
mp-1022471,Mg6ZrNi,0.0
mp-540121,LiMn6PO12,1.1095000000000002
mp-1061855,DyHg2,0.0
mp-23309,ScCl3,3.8723
mp-763205,Li2VO2F,0.9741
mp-998623,TlCdF3,4.2287
mp-1071051,NdMgCu4,0.0
mp-566113,GdMoO4F,3.3710000000000004
mp-1078516,BaCrS2,0.0
mp-1100162,RbMg6C,0.0
mp-1028380,CsMg14Ni,0.0
mp-779317,LiMnF3,3.5182
mp-1034815,Mg14CrSiO16,0.4282999999999992
mp-1037585,Mg30ZnSiO32,1.9690000000000003
mp-1035350,Mg14CuSnO16,0.0
mp-616539,FeC3SeO3,2.1107
mp-777059,Li4V3Ni3(WO8)2,1.0464999999999995
mp-780912,CaMnAs2(H3O5)2,2.4146
mvc-7594,MgSnAs2O7,2.0044
mp-19740,YInPt,0.0
mp-1027072,Te2MoWSeS,0.1559999999999997
mp-867973,Zn3(PO6)2,0.0
mvc-5236,SnO2,0.0
mp-5834,MgSiO3,4.9229
mp-565681,RbV(PO4)2,2.123
mp-1094340,MgTi5,0.0
mp-8673,Li2SnTeO6,2.0439000000000003
mp-1495,ErIr2,0.0
mp-27764,K4I2O9,1.9183
mp-762925,LiFeSiO4,2.9773
mp-8414,K2HfF6,6.8976000000000015
mp-29559,La3Si3Cl2,0.0
mp-6250,BaTm2ZnO5,3.3223
mp-9304,DyCuSeO,1.1804000000000006
mp-1064405,ZnBi,0.0
mp-976582,HfSb3,0.0
mp-561525,K2Ga2B2O7,3.7999
mp-976321,Li3Pr,0.0
mp-1073416,MgSi2,0.0
mp-627141,Si2H2O3,1.8384000000000005
mp-605912,Al2NiCl8,1.1343
mp-782707,LiV4O5F7,0.8755
mp-975588,PuPtO3,0.0
mp-23366,Rb2CoBr4,0.7514
mp-29407,AlTeI7,1.8759
mp-8320,SmScSi,0.0
mp-626275,Ca(H8O5)2,3.6908
mvc-7347,Zn(BiO2)2,1.7049
mp-9368,RbTmS2,2.3680000000000003
mp-778744,Li2MnNi(PO4)2,3.0241
mvc-3030,Ba2Tl2Co3O10,0.0
mp-30771,Lu6Ni2Sn,0.0
mp-765229,V2F7,1.7368
mp-980055,YErMg2,0.0
mvc-10596,CaMn3P3O13,0.3416000000000001
mp-715582,W3O8,0.0
mp-699375,Co8As3O16,0.0
mp-850768,Li9V6(P8O29)2,0.5789000000000001
mp-1067509,AlCuS2,0.0
mp-865874,Li2AgHg,0.0
mp-1031661,KRbMg6O7,0.0
mp-772477,CrSn(PO4)2,0.4352000000000005
mp-642975,CrBi12Mo4PbO34,2.5084000000000004
mvc-1204,Ba2AlMo3O8,0.0
mp-560902,MnF2,2.8743
mp-642725,CaHClO,5.327000000000001
mp-651301,NaIn(MoO4)2,3.5942
mp-23683,H2CO,6.2385
mp-3172,Ag3AuSe2,0.02610000000000001
mp-773450,TiCrO4,0.0
mp-29020,P4SeO6,3.1699
mp-1097320,NbRe2Mo,0.0
mvc-2780,Mg4Sn5(TeO6)3,1.4229000000000005
mp-1026530,Mg14NbC,0.0
mp-1037331,Mg30CdCuO32,2.6506
mp-770533,Li6MnO4,2.6186
mp-9126,Sr(SbO3)2,2.779
mp-1018678,CsHSO3,5.8302000000000005
mp-1094558,LiMg5,0.0
mp-767990,LiV(CO3)2,2.04
mp-1076268,Sr2Ca6Mn5(FeO8)3,0.0
mp-706627,ZnH6C2(NO)4,4.6747
mp-557656,RbNaSi2O5,4.4435
mp-743580,CsTiNiOF5,3.1081
mp-686708,Rb2YbTi(PO4)3,0.003300000000000025
mvc-16440,BaCa4(CuN2)2,0.2397
mp-570553,FeP4,0.8043000000000005
mp-757636,NbTlO3,0.7458
mp-697611,LiH5S(NO2)2,5.4792
mp-866810,Ca2SnS4,2.4422999999999995
mp-29615,Ca(MnBi)2,0.007800000000000473
mp-866311,Bi3BrO4,0.9143
mp-705742,Li13Mn21O48,0.02610000000000001
mvc-2157,MgV2O6,1.722
mp-21554,P3Pb5O12F,3.72
mp-1011860,Na2CoP2O7,3.0133
mp-975994,NaLa3,0.0
mp-13554,SnHgO3,0.04080000000000039
mp-782685,Li3Fe3(OF)4,1.7117
mp-9439,YbCuSb,0.0
mp-4408,Sm2Zr2O7,3.0741
mp-7476,RbDyO2,3.6027000000000005
mvc-11813,CaLaMn2O6,0.0
mp-1025227,Rb2MgCl4,4.961200000000002
mp-1094509,MgTi,0.0
mp-850150,Li3V3Cr2O10,1.1662999999999997
mp-720,TlF,3.2708000000000004
mp-1039233,CaMg2,0.0
mvc-9041,MgCr2(PO5)2,0.0
mp-850397,Li4Cr2Fe5O12,1.2824999999999998
mp-696512,NaH4IO2,3.6957
mp-867775,Al2NiRu,0.0
mp-769565,Na2VPCO7,2.1699
mp-6942,Ho2CdS4,1.1167000000000002
mp-1078853,DyCdCu,0.0
mp-755684,SrCa2I6,3.5008
mp-557559,S,2.4963
mp-504952,InGaSe3,1.7506999999999997
mp-574320,Eu2GeSe4,0.0
mp-753548,Rb6Ti2O7,2.1781
mp-1078278,CrB4,0.0
mp-31171,Zn2AgAu,0.0
mp-567678,Y7FeI12,0.0
mp-862334,Sc2IrRh,0.0
mp-570266,Sm26Ga6Co11,0.0
mp-25473,CoPO4F,0.0
mp-1097849,Ce(SiIr)2,0.0
mp-30900,TaBiO4,2.9731
mp-779067,Li4MnFe3(BO3)4,3.3969
mp-29354,Ba3(TaS4)2,0.7451999999999996
mp-15511,CaTe3O8,2.0065
mp-1762,ErRh2,0.0
mp-642322,Sr11In7,0.0
mp-556247,Dy3S3N,1.3945000000000003
mp-706528,CuH9CSN4Cl3O,1.4082
mp-961645,LiAlGe,0.0
mp-755875,Ti3O4,0.0
mp-11572,TaTc,0.0
mp-12931,SmTaO4,3.9732
mp-863731,InH4NCl4,3.6289999999999996
mp-555682,Sn(SeO3)2,3.0747
mp-1094570,LiMg2,0.0
mp-510488,SmMnSbO,0.002400000000000624
mp-554410,Ba2LaRuO6,0.2179000000000002
mp-12183,KB5O8,5.489
mp-1095626,La2P2AuO,0.049099999999999255
mp-865717,Ti2ReIr,0.0
mp-774008,Li2V2(Si2O5)3,1.0580999999999996
mp-781761,Li2FeF4,3.6637
mp-780095,LiMnP3(HO5)2,3.7991
mp-32380,LiNi(PO3)3,4.7234
mp-557719,PbS,2.0786
mvc-12046,MgCo2O5,0.1540999999999999
mp-20843,Sr2InPd2,0.0
mp-624383,Na2VCuF7,0.0242
mp-22199,KIn5S8,1.2568
mp-761748,Li2CrCo3O8,0.0
mp-761990,LiNiPO4,2.5709
mvc-10122,Mg(NiO2)2,0.0
mp-720263,CuH4SeO5,0.0
mp-565246,Na2MnO2,0.2702
mp-1028279,Mg14VW,0.0
mp-763812,Li5FeHO4,2.3347999999999995
mp-770615,Li2CrO2,1.4981
mp-764530,Na2FeO3,0.0
mp-27548,CuTe2O5,0.0
mp-763157,Li2Co2(CO3)3,2.6157000000000004
mp-861964,LiLu2Ir,0.0
mp-560515,K4Ru2Cl10O,0.5925
mp-706367,KCaP3H4O11,5.2022
mvc-10243,Ca(WO2)2,1.0543999999999998
mp-1013585,Sr3BiSb,0.0
mp-709540,CoH4C4(NCl2)2,0.07030000000000003
mp-14207,Ba(ZnSb)2,0.0
mp-560342,Ag4GeO4,0.0
mp-675620,Nd2PbS4,2.0293
mp-37297,U2PS,0.0
mp-1077355,TbCo2,0.0
mp-744206,Fe3P2H3O11,2.1246
mp-765435,Li7CrFe3(PO4)6,1.1046
mp-28135,NbXeF11,2.648
mp-1095900,ZnAgAu2,0.0
mvc-863,La2TeO6,3.454399999999999
mp-1093838,La2GaIr,0.0
mp-555093,CuB4O7,0.1877000000000004
mp-2882,Y2Cu2O5,0.5286
mp-1017529,VCo3,0.0
mvc-5976,MgFeAsO5,1.9847
mp-850431,LiFe4(BO3)4,1.7173000000000005
mp-976076,NaAc2Sn,0.0
mvc-10050,MnPO4,0.27180000000000004
mp-8976,Cu2WS4,1.4454
mp-557023,NbVF6,0.0
mp-1038368,HfMg30CO32,0.9770000000000004
mp-1093958,Al2CoTc,0.0
mp-762816,Li3Fe(PO4)2,2.5028
mp-71,Yb,0.0
mp-768175,Dy2SO2,2.8613000000000004
mp-707095,YHSO5,5.4776
mp-977552,Be3Tc,0.0
mp-763327,LiMnF3,3.4463
mp-561164,K3(MoO3)10,0.0
mp-14105,AlTlO2,2.1963000000000004
mp-766999,LiMnVP2(HO5)2,1.1236
mp-976080,Ge3B,0.0
mp-1099270,Mg6ZnFe,0.0
mp-1038934,MgAl,0.0
mp-1077938,Pr2CrSe4,0.0
mp-557771,SiO2,2.3054
mp-849456,LiCo2OF5,0.045499999999999985
mp-12515,LaZnSbO,0.0
mp-763534,Li2Co2SiO6,0.7170000000000001
mp-2491,ErSe,0.0
mp-675633,Ag4AuS2,0.0
mvc-2381,Ca2Ni9O13,0.0
mp-541883,Tb3Ni13B2,0.06740000000000013
mp-17722,PrTaO4,3.5750999999999995
mp-541811,Cs6K3GaSb4,0.6364999999999998
mp-1018095,BaGaGeH,0.039800000000000064
mp-1034380,NaHfMg14O15,0.0
mp-32692,Pr2S3,1.9510000000000003
mp-776513,LiVF4,2.0563
mp-12156,K3Sb5O14,1.1985
mp-510306,Sc2CrB6,0.0
mvc-14335,MnZnF5,1.2201
mp-567221,H10C3IN,4.3149
mp-1078562,SrAgSF,1.2491000000000003
mp-765452,LiVOF2,1.6095
mp-25098,Ba2Ni(NO2)6,0.0
mp-1077762,NdSiPt,0.0
mp-541385,Cs6Fe2O5,1.5080999999999998
mp-542789,Li14Cr2N8O,2.4159999999999995
mp-780896,MnCr(PO4)2,0.0
mvc-16258,Sr9Zn4(CuO7)2,1.7851
mp-510224,Ba6Mn5O16,1.3148000000000004
mp-567279,ZnCl2,3.8763
mp-28198,RbInI4,2.5376000000000003
mp-13496,ZrPd,0.0
mp-20481,MnSnPd2,0.0
mp-32493,V(HO)2,1.7620000000000005
mp-978992,SnH4,0.0
mp-1094391,YMg,0.0
mp-554591,K2Ca2(CO3)3,4.7388
mp-975337,RbF3,0.0
mp-567431,ThCl4,3.6379
mp-763468,LiV3P3O11,2.4286000000000003
mp-704637,Nb12WO33,1.8904
mp-19112,FeSO4,4.152699999999999
mp-559560,Nd2Ti3(ClO4)2,2.9455
mp-5786,U(SiOs)2,0.0
mvc-15332,Ca(NiO2)2,0.7778
mp-580450,Ba2Mn2Si2O9,1.9934
mp-1623,ErS,0.0
mp-395,ZrAl3,0.0
mp-556940,MgSiO3,3.8758
mp-62,Pa,0.0
mp-5874,TlAgTe,0.6385000000000005
mp-1028261,CeMg14Mn,0.0
mp-1095838,Na2TlHg,0.0
mp-27543,As4S3,2.3035
mp-1093901,ZrSbRu2,0.0
mp-1027787,NaMg14Fe,0.0
mp-1028195,Mg14MnNi,0.0
mp-675379,Li2Ta2O3,0.0
mp-1040287,KMg30BO31,1.9395999999999995
mp-24912,Cr3BO6,1.673
mp-764588,LiFe2(BO3)2,0.9619
mp-2391,YbPd3,0.0
mp-1079319,YbMgPb,0.0
mp-24468,H8S(NO2)2,5.072699999999998
mp-756837,Ca4Zr3TaO12,0.0
mp-763172,FeOF,1.2819
mp-752670,Li3FeS3,0.0
mp-559187,NaVF4,2.0363
mp-11851,ErCoSn,0.002399999999999736
mp-1095215,K2Mg(CO3)2,4.1720000000000015
mp-680308,Re(Se2Cl3)2,0.1583
mvc-12761,CaSi4(NiO6)2,0.0
mp-680291,Ba15Fe7S25,0.02099999999999991
mp-1018051,KTiS2,0.0
mp-1028357,Mg14NiSb,0.0
mvc-12183,Mg(NiO2)2,0.6210999999999998
mvc-9155,ZnCrBiO5,0.7892000000000001
mp-773796,Cr3(FeO6)2,1.7861
mp-752742,LiCu2F4,0.0
mp-1039667,RbMg30CO32,0.4630999999999999
mp-765447,Li5V5O9F,1.0942999999999996
mp-776768,Li4V5Fe3O16,0.8889999999999998
mp-1028396,KMg14Ni,0.0
mp-29491,HS8N,2.6047
mp-2268,TbAg,0.0
mp-1017085,CsSrMg6,0.0
mp-32099,Mo4P7O24,0.8672000000000002
mp-776411,LiCoPO4F,0.4081000000000001
mp-746681,VH8C2NO3,3.0763
mp-605642,KB3(HO3)2,4.8267
mp-640578,KTiI3,0.0
mp-32001,LiMn2P3O10,3.7757000000000014
mp-767910,Li3MnPCO7,3.5184
mp-532156,Hg7(Sb2Br3)2,0.0
mvc-2993,Ba2YTlW2O7,0.0
mp-1096726,BaNa2Sn,0.1471
mp-684642,SN,0.0
mp-11428,GdPt,0.009400000000000295
mp-603254,PH9AuC3S3Cl,2.8803
mp-1076215,K2Nb2O5,0.0
mp-1074278,Mg4Si3,0.0
mp-1098763,YMg30VO32,0.0
mp-675987,Ag7(SI)2,0.0
mp-1079156,AgClO2,0.9518
mp-21495,CrFeP,0.0038000000000000256
mp-1095459,CeNi4B,0.0
mp-985471,Ce2ZnHg,0.0
mp-690650,ZnH4(ClO3)2,2.5049
mp-570826,VSnRh2,0.0
mp-571519,CdI2,2.3711
mp-23457,PBr2N,3.0406
mp-1077889,IrC2,0.0
mp-1097433,MgAg2Hg,0.5516999999999999
mp-561368,NaClO4,5.2431
mp-669474,RbTeNO3F4,3.1786
mp-24446,LiH2SO4,5.1899
mp-720965,Al2H18SO15,0.02090000000000014
mp-58,K,0.0
mp-560223,K2Se(SO3)2,2.9779
mp-1075047,Mg3Si4,0.0
mp-977356,ZnGaIr2,0.0
mp-1099822,Rb2Mo2O5,0.4625000000000004
mp-1026911,MoW(SeS)2,0.5913000000000004
mp-551675,Li3UO4,0.3780000000000001
mp-2530,Li2Te,2.4914
mp-1070802,CaC2,2.1121000000000003
mp-547517,Sr2Cu3(ClO2)2,0.0
mp-1040095,LiMg30WO32,3.4809
mp-21781,Sr(InS2)2,2.2643000000000004
mp-7914,NaScO2,3.98
mp-1063280,LaHg2,0.0
mp-691133,CrHO2,2.8264
mp-27833,Tl2TeCl6,2.5741000000000005
mp-850155,NiH12S2(NO5)2,4.5176
mp-779835,LiCrB3(HO3)3,1.4087
mp-8022,Al2O,0.0
mp-764248,Li2VCr(P2O7)2,2.1292
mp-566608,SrCrF4,2.4214
mp-1019107,PuTe2,0.0
mp-753621,Li5SbS,0.9053999999999998
mp-780855,Fe4O7F,0.0
mp-569002,Y3ReB7,0.0
mp-557143,Tl2Cu(CO3)2,0.16129999999999978
mp-565332,LiMg4V3O12,3.3004999999999995
mp-779159,Na8Cu2O7,0.016699999999999937
mp-28450,Li4P2O7,5.6108
mp-1095722,BeBIr2,0.04760000000000009
mvc-9229,CaTiNi(PO4)3,0.0
mp-975518,NdLuIn2,0.0
mp-673244,Bi2O3,0.9078000000000008
mp-763210,Li9Mn4(BO3)8,0.0
mp-1036265,YMg14MnO16,0.041100000000000136
mp-567152,MoP3Pb2O11,3.5617
mp-559139,H8C3N2O,4.6949000000000005
mp-572442,Cs3Nd(PS4)2,2.1845000000000003
mp-777004,Li9Fe7(PO4)12,0.0
mp-605027,Mg5Pd2,0.0
mp-780524,LiMn3(BO3)3,0.007699999999999819
mp-770325,LiVB2O5,2.2631
mp-762058,Na2Ti2O5,3.8524
mp-867030,Ca4Sn5S14,0.7490000000000001
mp-1034602,NaMg14CrO16,1.8712
mp-973652,LuRu3,0.0
mvc-4204,Ca2TaAgO6,0.5219000000000003
mp-1077071,GdCo5,0.0
mp-1017053,Mg6CdB,0.0
mp-631451,Ta2CdBi,0.0
mp-1078886,Ce(AlAu)2,0.0
mp-31845,LiFe2(PO4)3,0.0002999999999999946
mp-17207,Tl4GeS4,1.901
mp-1029537,Ba3RuN3,0.0
mp-862670,Sr3Co(CN)3,1.1028000000000002
mp-561303,NaSb(PS3)2,2.1465
mp-6694,Cs2Zr(SiO3)3,4.789899999999999
mp-1080477,I(NO3)2,0.0
mp-777473,Li5Mn8(BO3)8,0.4197
mp-997089,NaAuO2,1.1413
mp-567248,Yb4Mn2Sn5,0.0
mp-1077479,EuBi2,0.0
mvc-7845,VZnBiO5,2.6374000000000004
mp-866227,CaNdRh2,0.0
mp-762415,Li4Mn3Nb3(FeO8)2,0.4687000000000001
mp-998786,TlPdF3,0.0
mp-542704,CsHCO2,4.4835
mp-540939,Ti(TlS)4,2.4819
mp-1030448,Te6MoW3Se2,0.10460000000000004
mp-676813,RbAg4I5,1.7041999999999995
mp-1076881,Ba3Sr5Co3(CuO4)5,0.011699999999999822
mp-29631,Li11Ge6,0.0
mp-5914,Li3BN2,3.3011
mp-1071985,CeSnAu,0.0
mp-534778,NaCa2ScZn2(SiO3)6,4.2934