mpid,formula,gap pbe
mp-759263,Li3Bi3(PO4)4,3.4515
mp-766156,LiV3(OF3)2,1.7441
mp-696200,CuH20C2S3(NO)8,0.665
mp-769496,Na3Ni2P2(CO7)2,0.0
mp-4416,Ho6FeSb2,0.0
mp-689963,CrPO4,2.0446
mp-25602,LiNiPCO7,0.0997
mp-10909,AlRe2,0.0
mp-699362,Al2NiO4,3.4756
mp-779903,Fe4O3F5,0.6722000000000001
mp-1072543,ZrN2,0.0
mp-972898,Sc2GaAu,0.0
mp-636498,In3Ir,0.0
mp-767807,Mn(CoO2)2,0.4102999999999993
mp-565379,KCa10V7O28,3.8017
mp-570788,Yb3Ni7B2,0.0
mp-5628,K(RuO2)4,0.0
mp-1006146,Eu(MgBi)2,0.0
mp-783911,LiV2OF5,1.1741999999999997
mp-1035531,Mg14FeBO16,0.0
mp-1486,ZnNi,0.11270000000000024
mp-530294,Sm2Zr2O7,2.8528
mp-850105,K6Cr2O9,0.5209999999999999
mp-28393,P3Se4I,1.6437000000000002
mp-28317,NaCu5S3,0.0
mvc-16728,Y(VS2)2,0.0
mp-1080382,ErInPt4,0.0
mp-573810,U2Te5,0.0
mp-1074930,Mg7Si4,0.0
mvc-9045,LaZnFeAgO6,0.1311
mp-773646,InP2H9(NO4)2,3.6991
mp-15157,Cs2CaF4,6.1005
mp-1078634,LaFeO3,1.4444999999999997
mp-863679,ErTaRu2,0.0
mp-776985,MnV3O8,1.0782999999999998
mp-756160,Er3TaO7,3.3585
mp-777242,LiFe2OF5,2.0388
mp-1028081,YMg14Zn,0.0
mp-32410,V2P5O16,0.17459999999999998
mp-20615,EuGePd,0.012700000000000156
mp-1033928,KMg14SiO16,0.0
mp-754550,Tb3TaO7,3.3976999999999995
mp-10142,Ta3B4,0.0
mp-1022077,BaMg6Co,0.0
mp-631390,SrZrZn,0.0
mp-766992,Li3VCrP2(O4F)2,0.5934999999999997
mp-623108,Eu4Ir,0.0
mp-850255,LiFeP3H8O13,3.3193
mp-23951,Cs(BH)3,4.3266
mp-1029566,CsOsN2,0.0
mp-531125,Ag7(PbO3)3,0.04939999999999989
mp-555888,C2S(OF)4,6.1791
mp-697120,BH3NF4,7.5583
mp-766804,VCrP2(HO5)2,0.6234999999999999
mp-720197,K4GeH4N2O3,2.4271000000000003
mp-555090,LiBS4(ClO3)4,4.6226
mvc-4366,Mg2TaMnO6,0.5998999999999994
mp-867221,Ce3(TaN3)2,0.0
mp-774406,Cr3Ni(PO4)6,0.0
mp-25201,Bi(PdO2)2,0.0
mp-1509,Sn2S3,0.7755000000000001
mvc-5786,Mg2IrWO6,1.3015
mp-645979,RbCrF5,1.6165
mp-1079940,Sr3CaO4,3.2949
mp-541979,Bi9Rh2I3,0.5161000000000007
mp-1094252,MgSn2,0.0
mp-1096290,YRhAu2,0.0
mp-1095768,Y2ZnCd,0.08909999999999972
mp-19442,Mn(Ni3O4)2,1.3838
mp-557679,KNaSi2O5,4.2837
mp-29274,P2PdO6,1.6915999999999998
mvc-2207,Ba2Mn2CuF14,0.9924
mp-979932,Sr3SiO5,3.7464
mp-5284,U(CrSi)2,0.0
mp-697676,H2Pb4SO8,2.7898
mp-28228,Ag7Te4,0.0
mp-762172,Co2Ni3Sb(PO4)6,0.0
mp-771685,V4SnO12,2.5109
mp-772391,Li2Mn3NiO8,1.0297
mp-1099323,CeMg6Cu,0.0
mp-1014366,CrN2,0.0
mp-773583,PrCrO4,0.6654
mp-24724,TbH2,0.0
mp-17777,Sr5As3O12F,3.9026000000000014
mp-780745,Co3OF5,1.0289
mp-769868,Li3BiH8O7,4.0181
mvc-16726,Al(CoS2)2,0.0
mp-777875,LiFeF4,3.5689
mp-1099118,CaCeMg6,0.0
mp-1035124,LiMg14CO16,0.0
mp-9559,Nd3IrO7,0.0
mp-542699,C2Se3N2,1.9759
mp-754897,BaTl2O4,0.2972999999999999
mp-770158,LiMnAlO3,1.8152
mp-773519,Li4Mn3Fe(PO4)4,3.4465
mp-569678,Rh4Pb5,0.0
mvc-9860,LaVZnCrO6,1.3476
mp-1077875,Sr2RhO4,0.0
mp-778823,Fe5(OF4)2,1.6033000000000002
mp-776074,CaGeO3,3.2925
mp-963,ZrO2,2.8574
mp-1032,Ta2B,0.015700000000000713
mp-553936,K2Ag4Pd3(NO2)12,1.7352999999999998
mvc-8428,CaNi2P2O9,0.0
mvc-15166,Y8Cu3(GeSe7)3,0.0
mp-1057115,CeN,0.0
mp-21346,U3Si2,0.007499999999998508
mp-764758,Li6MnF8,4.5332
mp-770003,Na2VBPO7,1.4714
mp-1079915,PrAu,0.0
mp-767013,FePO4,2.5838
mp-753383,LiAgF4,1.5987999999999998
mp-983062,K3Cd,0.0
mp-1025377,Cd(AgI2)2,1.7715
mp-849526,V6O11F,0.4392
mp-765111,LiVFeP2(HO5)2,1.5472
mp-9330,CdPS3,1.7726999999999995
mp-561384,ZrF4,4.8934
mp-694615,LiFePO4,3.5227000000000004
mp-569900,Sc3Zn17,0.0
mp-15897,La4Si2S3O7,2.4924
mp-765970,Ti3Sn7O20,1.7439
mp-560114,Er3O2F5,5.6188
mp-850500,Mn11Fe(PO4)12,0.4387999999999999
mp-762622,Li3Fe(PO4)2,2.24
mp-764159,V2OF5,1.4965
mp-780560,Mn3O5F,0.0
mp-23187,La4Bi3,0.0
mp-20789,SmInRh,0.0
mp-775325,Li6MnV3(PO4)6,0.44920000000000027
mp-763499,Li2V(CO3)3,2.3544
mp-567352,Ga(SbBr)4,2.0068
mp-1009755,Ca2Ge,0.5756000000000001
mp-2273,Ag3Sb,0.0
mp-772003,Li5Co7O12,0.0
mp-978497,Si3H,0.0
mp-1037774,YMg30NiO32,1.4345000000000008
mp-30493,ZnCdPt2,0.0
mp-684690,Sc2Se3,0.5374000000000003
mvc-10304,CaCu3P3O13,0.0
mp-541605,Ni(SbO2)2,2.1696
mp-1039117,CaMg3,0.0
mp-699598,Co8Te(AsO8)2,0.7623000000000002
mp-1097008,K2O2,0.0
mp-36216,Ag2S,1.0844
mp-767362,LiNiPO4,3.1167000000000007
mp-18204,Ba5Yb8Zn4O21,0.0
mp-780497,Li2MnFe(BO3)2,2.6796
mp-756869,K2TbO3,0.0
mp-1040192,KMg30SbO32,1.9784000000000008
mp-86,Sm,0.0
mp-607450,In3Ru,0.2078999999999996
mp-8932,Cs2SiP2,1.27
mp-557853,TiH8C4NO10,0.022900000000000142
mp-780595,Na3VBPO7,2.0249
mp-1022553,Mg6ZrC,0.0
mp-635084,LiPWO4,0.8600000000000003
mp-10232,NaMnSe2,0.0
mp-15922,Gd2ReO5,0.8655999999999997
mp-1067619,Ge,0.0
mp-677323,Li11TiSb5,0.09020000000000028
mp-1035523,KHfMg14O15,0.0
mp-635134,KFeBP2HO9,2.2592
mp-24850,LiCoO2,2.1503000000000005
mp-409,NaS,0.8685
mp-695984,BaRe2H2O9,3.8947
mp-1094750,YMg3,0.0
mp-1039725,RbMg30BO31,1.8684999999999992
mp-31055,Sc3InN,0.0
mp-15323,Nd(BOs)4,0.0
mp-1099889,Sr7CaTi7MnO20,0.0
mp-769483,Li11(CoO4)2,0.2894000000000001
mp-769537,Li14MgCo13O28,0.0
mp-699393,YbSi6H54(C6N)3,0.14700000000000024
mvc-878,Y(CuO2)3,0.0
mp-752406,Rb3TmO3,2.1734
mp-1214,VS,0.0
mp-704235,Ni7(PO4)6,0.0
mp-1017095,Mg6GaBi,0.0
mp-705522,Sr28In11,0.0
mp-554751,FeSnF6,0.08539999999999992
mp-1352,ZrN,0.0
mp-1019614,Cs3Y(PO4)2,4.4731000000000005
mp-865922,FeH4Br3N,0.0
mp-979283,V3Cu,0.0
mp-569431,Tb3P4Pd7,0.0
mp-1018664,CeO2,1.9544
mp-774094,Li5V5(CoO6)2,1.3290000000000006
mp-767825,Cr22Ni50Mo3,0.0
mp-754338,Ag2O,0.0
mp-778150,Li9Nb3P8O29,0.1548999999999996
mp-769822,Li4Fe5SnO12,0.0
mp-868821,Li2TiCr3O8,0.0
mp-17371,K2ErF5,6.7986
mp-673070,LiNb(PO4)2,2.2718000000000003
mp-781062,LiMn2(BO3)2,0.20720000000000005
mp-1022615,Mg6ZnW,0.0
mp-766047,K5Li3Ti8(AsO5)8,3.0181
mvc-12010,FeP2O7,0.0
mp-767456,Li3Ta5Cu2O15,1.2672000000000003
mp-3043,Sr(Mo3S4)2,0.0
mp-12862,LuTaO4,4.0476
mp-771422,Li2FeCSO7,4.1541000000000015
mp-583589,SnH14C4(Br2N)2,2.294
mp-706640,CaAl2Si4(H2O7)2,0.1098
mp-667471,KB5O8,4.1303
mp-975198,RbTl3,0.0
mp-1002106,HfPd,0.0
mp-762625,Li4Mn3(NiO4)3,0.29000000000000004
mp-780128,Fe2OF3,1.3111
mp-777907,Li5FeOF5,4.2827
mp-12231,SnTe3O8,2.9251
mp-1075341,Mg3Si4,0.0
mp-28879,Ca5P8,1.1418000000000004
mp-9998,MoAs,0.0
mp-1029770,BaCrN2,0.0
mp-778363,Li4Ti3Fe2Sn3O16,1.2871
mp-626267,Ca(H8O5)2,3.8401
mp-583029,K3CaV5O15,2.7283
mp-504134,LiNi3P3O11,3.7426
mvc-6893,VZn(SiO3)2,1.7731000000000003
mp-622282,V2Co2O7,2.0913000000000004
mp-770392,BaLaBr5,3.1518
mp-1018100,AlSb,0.9179000000000004
mp-1070580,Al3Ru2,0.0
mp-1097548,MgTiNi2,0.0
mvc-9235,ZnNiBiO5,0.2448000000000001
mp-861915,LiDy2Ir,0.0
mp-534863,CaMg2TiAl2SiO10,2.3251000000000004
mp-695845,Li3Mn2(PO4)3,1.0846999999999998
mvc-3228,Sr2CoSO3,0.0
mp-31829,Fe3(PO4)4,0.0029000000000000137
mp-10907,PuAl3,0.01529999999999987
mp-605786,Eu2BrO2,0.0
mp-532016,Ca12Al14O33,2.1738
mp-3891,EuTl2Pd,0.006000000000000227
mp-560420,K3Bi2(PO4)3,3.7816
mp-5055,Na6MnS4,1.4011
mp-1095571,DyVO4,2.7757999999999994
mp-775234,Li3V3(FeO6)2,2.4519
mp-865206,TmCdRh2,0.0
mp-1096807,Al(OF)3,0.6562000000000001
mp-767778,Li2V3Si3O10,1.925
mp-1079916,DyIn2Ni,0.0
mp-569753,TlCoCl3,0.0
mp-31583,LiCo(PO3)3,3.2008
mp-3791,ScCo2Sn,0.029799999999999827
mp-556696,Ba2YbB2ClO6,0.0
mp-559732,K2Nd(PO3)5,5.2483
mp-11284,CaGa2,0.0
mp-734137,H9C2N7O6,3.3053
mp-758203,Sb8Cl2O11,2.1307
mp-1065668,GdNiC2,0.0
mp-765357,Li3V2(OF)3,1.2123000000000002
mp-763550,Li3P2WO8,3.9891
mp-763695,Li2Mn5O10,0.2812000000000001
mp-995434,Fe11MoC4,0.0
mp-19675,Mn5(SiO4)3,0.035499999999999865
mp-568908,TiAs,0.0
mp-976339,LiTm2In,0.0
mp-34563,Mn2CuO4,0.02179999999999982
mp-11841,CeAg,0.0014000000000002901
mp-1078466,MnSi,0.0
mp-600182,CdH8C2Br3N,3.3781
mp-505431,K2LiInAs2,0.6193
mp-773681,Na2LiMnPCO7,3.4684
mp-862745,Sr2LiPt,0.0
mp-568772,WCl3,0.0
mp-1013534,Sr3SbN,0.0
mp-558778,Nb3CoS6,0.0
mp-22826,KNb8O14,0.0
mp-1001019,Mg(ScSe2)2,1.0918
mp-761300,LiFeB2O5,2.0450000000000004
mp-757305,Li2TiP3O10,0.14110000000000025
mp-767253,LiFeSiO4,2.8739999999999997
mp-780628,Na6Cr2B4PO16,0.0
mp-769801,Li2AlCoO4,1.6912000000000005
mp-2117,TbN,0.013399999999999856
mp-109,Si,0.0
mp-557076,SiO2,4.0465
mp-768678,LiSn2(SO4)3,0.18619999999999992
mp-20256,K3InP2,0.7887
mp-1056860,NaB,0.0
mp-796,Nb3Al,0.0
mp-25159,KV6O11,0.3249999999999997
mp-769903,V2Si2O7,2.3302000000000005
mp-540629,Al2Te2Cl7,1.4057
mp-616260,KYb3F10,0.0
mvc-2265,Ba2ZnCr2CuF14,0.8406
mp-705032,Fe3P3O11,1.5595
mvc-356,Sr2YAlW2O7,0.8197000000000001
mp-1030269,Te4Mo3WS4,0.0
mp-1029860,Ca5(RuN3)2,0.0
mp-1080141,Cs2Ni3S4,0.8785999999999996
mp-772497,Er4(B2O5)3,5.5805000000000025
mp-1077325,ZrBrN,1.4423
mp-684736,TiH12N3F7,3.5435
mp-777083,LiV6O7F5,1.3779
mp-10446,Sc6NiTe2,0.0
mp-1002221,ErH,0.0
mp-973958,KRuO3,0.0
mp-570775,BaAu,0.0
mp-977571,MgRh2Pb,0.0
mp-1097090,Ca2PbAu,0.0
mp-1027876,Mg14ZrBi,0.0
mp-1075111,Mg3Si4,0.0
mp-768308,LaAgO3,0.0
mp-770619,Li24Mn11CrO36,1.2342000000000002
mp-770763,LiMnPO4,3.3517
mp-1026866,CsMg14Cu,0.0
mp-28593,Li3BrO,4.7642
mvc-3752,Mg2Bi2O5,1.8327
mp-21850,Fe3SnC,0.0
mp-29154,Hf2CoP,0.0
mp-978290,Mg3Os,0.0
mp-754352,Na3CuO2,1.1506000000000003
mp-568974,Ca(CuSn)2,0.0
mp-650140,InCo3(CO)12,2.6591
mp-1076401,Rb2Cr2O5,0.0
mvc-672,Ba2YSb3O8,0.3541999999999996
mp-17856,Al7CoCu2,0.0
mvc-11839,Al(CuSe2)3,0.0
mp-557248,H7C(NO)3,3.3559
mp-4362,Cu2Ag2O3,0.0
mp-15483,Zn3(AsO4)2,1.8965
mp-1097038,LiAl2H6BrO6,4.7794
mp-16624,ErAl7Au3,0.0
mp-865215,TmHfRu2,0.0
mp-25771,MnH8SO8,4.393
mp-757433,NaTi4O8,0.0
mp-776322,Li2V5CoO12,0.0
mp-1079704,Tb3Sn7,0.0
mp-560469,Ba6Nb14Si4O47,0.04499999999999993
mp-558739,RbSb2Au3S5,0.7259000000000002
mp-866522,Ca2SnS4,1.0520999999999998
mp-773178,Na2CrCSO7,2.3779
mp-862891,PmCdAu2,0.0
mp-1079449,Nd(SiIr)2,0.0
mp-565703,NaMn7O12,0.0
mp-8079,B5W2,0.0
mp-559569,YSiNO2,4.215400000000002
mp-20152,In(MoSe)3,0.1778000000000004
mp-720825,NaPH4O5,4.9949
mp-1032152,BaMg6FeO8,0.3263999999999996
mp-555117,Cs2Bi4O7,2.6731
mp-705606,Al2CoO4,1.1716000000000006
mp-1039864,CsNaMg30O31,1.9418
mp-764625,Mn6O5F7,0.0
mp-778405,LiFe2F5,2.9965
mp-510266,Fe2Te4O11,2.2045000000000003
mp-2929,BaTbO3,0.0
mp-616653,CsUVO6,2.0327
mp-561493,CoSb2Br2O3,1.2096
mp-779869,Li2MnV(P2O7)2,0.42820000000000014
mp-1096449,TaNbRu2,0.0
mp-1023611,Mg15V,0.0
mp-705548,Fe7O8,0.0
mp-574472,CsCeHgSe3,0.0
mp-1094983,Mg5Bi,0.0
mp-20244,ZrPbS3,1.2455000000000005
mp-600785,Tb(MnSn)6,0.0
mp-24970,Ca2FeSbO6,2.2696
mp-4802,La4Re6O19,0.0
mvc-2275,Mn9Zn2O13,0.0
mp-625378,NaH9O5,4.66
mp-672204,Ga3Ru,0.3786999999999998
mp-853256,Li3Fe2(PO4)3,2.4981
mp-782668,Li4VP2(O4F)2,1.5804999999999998
mp-31179,Ho(Al2Fe)4,0.026699999999999943
mp-983566,Ca2AgGe,0.0
mp-767566,Na2TmPCO7,4.412999999999999
mp-19604,NaMnAsO4,2.1086
mp-567424,K8NbAs5Pb,1.1994
mp-556334,Na3Ce(PO4)2,3.5264000000000006
mp-30067,Te3Pd10,0.04709999999999948
mp-606675,MnGaNi2,0.0
mp-763616,La4Mn4O11,0.2237
mp-555411,SiO2,1.7691
mp-505794,ScH6N2Cl3,3.8715
mp-626726,BaH4O3,3.9287
mp-766105,NaV4O10,0.8429000000000001
mp-1095985,MgTiAu2,0.0
mp-1073900,Mg6Si5,0.0
mp-5000,Tl(CuSe)2,0.0
mp-975883,PrNdHg2,0.0
mp-763648,LiV2(CO3)4,1.2619
mvc-11235,BiN,0.0
mp-1097673,Zr2ReTc,0.2030000000000003
mp-559264,Bi2PdO4,0.0
mp-559078,SrVF5,2.3682000000000003
mp-11143,BaCu9Si4,0.0
mp-557668,MnPtF6,1.8679
mp-510052,Hf5(In2Rh)2,0.0
mp-865960,CoRe3,0.0
mp-773167,Mn3CoO8,0.6690000000000003
mp-762549,Li2Fe3(P2O7)2,3.9136
mp-761486,LiFePO4,3.4886
mp-25625,VSO5,1.6239
mp-16318,RbTiS2,0.010200000000000207
mp-3626,SrZrO3,3.4160000000000004
mp-580140,Nb6Co16Ge7,0.0
mp-7660,BaRhF6,0.0
mp-866139,TiBe2Ir,0.0
mp-556066,Sr2LiSiO4F,4.7908
mvc-2374,Ta2Zn2CuO8,0.08389999999999986
mp-559049,NaTi(SiO3)2,0.2556000000000003
mp-865230,TmMgRh2,0.0
mp-1078567,Sr(BiPd)2,0.0
mp-762870,Li2CrSiO4,1.6349
mp-776512,MgCoO3,0.16229999999999967
mp-565229,Na3Mn4(TeO6)2,0.0
mp-571146,SnICl,2.5132000000000003
mp-22515,Rb2CuPb(NO2)6,0.009200000000000095
mp-560740,La2SnS3O2,1.6742
mp-27815,NbCl3O,2.4018
mp-566900,Li2Ni(WO4)2,3.3584
mp-542245,Yb2PbAu2,0.0
mp-1038879,Ca3Zn,0.0
mvc-20,Nb2TeO8,0.9893
mp-1034150,KRbMg14O15,2.014
mp-755559,LiNbO3,3.4560000000000004
mp-15179,Pr2S3,0.7774999999999999
mp-5267,Np(Al2Cu)4,0.0
mp-558050,Rb2NaMnF6,1.5342
mp-13580,LuGePt,0.0
mp-768965,BaYCl5,4.652
mp-1093950,Y2CoIr,0.20860000000000006
mp-1094205,Mg5Sn,0.0
mp-21576,Sc2Te,0.0
mp-776798,Li2MnVP2(HO5)2,0.5434999999999999
mp-554041,Na2Al2B2O7,4.3422
mp-10844,Te2Ir,0.0
mp-568295,Pr8(BCl)7,0.0
mp-720382,H12Cl2O13,5.255
mp-733675,K6Na15Tl18H,0.0
mp-10348,LaSc3(BO3)4,4.1081
mp-639756,DyIn3Cu2,0.0
mp-8877,Sr4Al6SO12,3.3443000000000005
mp-561492,ZnSb2(XeF4)6,2.5338
mp-530754,Mg5Al34O56,0.17269999999999894
mp-971632,GaP,0.2108000000000008
mp-763968,Li4V3Ni3(TeO8)2,1.3096
mp-22030,EuBO3,0.00219999999999998
mp-37514,SrCuO2,0.6403000000000003
mp-669410,K2Mn(SnSe3)2,1.0268000000000002
mp-1030742,MoW(SeS)2,0.6036999999999999
mp-23626,RbLi2(IO3)3,3.8184
mp-765147,Cr2H21I7(N2O)3,1.6466
mp-769985,LiCrB2O5,2.8547
mp-28511,Zr2P,0.0
mp-865368,Tm2NiOs,0.0
mp-21162,SrPb3,0.0
mp-769708,Li3MnPCO7,3.6579
mp-770421,Li6Mn3Ni(PO4)6,0.40749999999999975
mp-1058119,KS,0.0
mp-1056579,Si,0.0
mp-976277,Nd(NiBi)2,0.0
mp-782100,As4H24C8S7N2,2.4276
mp-1097018,CrN2,0.10890000000000022
mp-1100417,VSbRh,0.0
mp-1094091,Sm2Sc2O5,0.1966000000000001
mp-19190,SrNiO2,1.735
mp-29200,KNO2,2.5269
mp-677636,Sr22Nb10O47,2.3652
mp-1001024,Y2MgS4,1.7768000000000002
mp-680133,CdI2,2.3402000000000003
mp-771276,LiMnB2O5,1.5574
mp-850910,Na6V2As(CO4)4,0.0
mp-677724,U8Bi2O19,0.0
mp-770146,Li3Mn2P2(CO7)2,0.4526000000000001
mp-866169,KTl2Bi,0.0
mvc-2202,Co(PO3)4,0.7464999999999999
mp-567771,Ba(Si3N4)2,3.2547999999999995
mp-20603,CeTl3,0.01839999999999975
mp-554320,P2Pd2O7,0.7162999999999999
mp-761727,LiCoPO4,3.1147
mp-996943,Cs2NaInBr6,1.8935
mp-768031,MnOF,0.3766999999999998
mp-636320,TiGaFe2,0.0
mp-630491,KV(IO4)2,2.7052
mp-1077581,EuPPt,0.0
mp-1027341,Te2MoWS2,0.0
mp-698325,BaH4(CO2)3,4.6433
mp-866638,KSc(BH4)4,4.8553
mp-12881,Ba3NbGa3(SiO7)2,3.2958
mp-867968,NaHo4Ge2O11,0.6627000000000001
mp-1095196,HfGeOs,0.0
mp-770357,Li2AlNiO4,1.8099
mp-1035297,BaMg14CuO16,0.0
mp-1062072,YMn2,0.0
mp-1097530,Zn2IrPd,0.0
mp-686585,K6Al11Si13Ag5O48,1.5983
mp-1080511,BaMg(CO2)2,1.3501000000000003
mp-982065,PrHo3,0.0
mp-582753,Tl2Te,0.6448
mp-38950,Ce2Y2O7,1.6482
mp-705298,Co3SnC12BrO12,2.327
mp-557515,CrBiO3,1.8397
mp-555279,BSBr,3.6239
mp-1094875,CeMg,0.0
mp-1023938,Te2Mo,1.0502
mp-1096463,Sc2CdAu,0.0
mp-556367,CdHgC4(SN)4,2.4633
mp-32320,Li4Ni(PO4)2,3.5375999999999994
mp-1018702,EuZnGe,0.0
mp-1076895,K5Na3Ta2Nb6O20,0.0
mp-581747,PuGa,0.0
mp-560600,CsNiPdF5,0.718
mp-1094411,YMg3,0.0
mp-601243,ZnH8C4(NO3)2,0.1471
mp-722243,Na2CuH4(C2O5)2,0.7893000000000001
mvc-4622,Al(NiO2)2,0.0
mp-861886,LiDyHg2,0.0
mp-568614,Cs3W2Cl9,0.7297000000000002
mp-764145,NaMnO4,1.9124
mp-11651,Yb3SnO,0.0
mp-865928,Ti2TcPt,0.0
mp-778296,LiNiPO4,3.5718000000000005
mp-1096016,Ca2InPb,0.0
mp-562517,CaMg(SiO3)2,4.6554
mp-6144,Na2La2Ti3O10,2.0914
mp-707334,K7P6H2NO22,3.6047
mp-971831,Tm3Th,0.0
mp-761475,Li2Fe2Si5O13,3.3943
mp-1040450,Li5P(S2Cl)2,2.8384000000000005
mp-1096217,CdPdAu2,0.5387999999999993
mp-780900,LiMn3(BO3)3,0.4302999999999999
mp-567252,Nb3Se12I,0.0849000000000002
mp-976378,La3Sn4,0.0
mp-684963,Fe3Se4,0.0
mp-571212,Yb5Ag3,0.0
mvc-7990,MgFeAs2O7,1.7611
mp-2066,EuCu5,0.03960000000000008
mp-574684,Na2SnAs2,0.4777
mp-29295,Sr3Sb4S9,1.0408000000000008
mp-1164,ThC,0.0
mp-998746,TlGeBr3,2.2566
mp-626567,Ti3H2O7,2.9330000000000003
mp-650392,FeSiO3,2.7187
mp-566457,Sr2UNiO6,1.6063999999999998
mp-982930,HfTl3,0.0
mp-1061979,TbPd2,0.0
mp-10463,YCo4B,0.0
mp-16821,Ba3PrRu2O9,0.0
mp-6391,Na2ZnSiO4,3.3033
mp-764566,LiFe8(BO3)8,1.2399999999999998
mp-765860,Fe2CoO4,0.5830000000000002
mp-1094278,ZrSn,0.0
mp-690601,NdTi3Fe(CuO4)3,0.02160000000000029
mp-566756,Ba4Fe3(S3F2)2,1.2306
mp-630329,PbSeO3,3.3267999999999995
mvc-10144,CuSbO4,0.3338000000000001
mp-16838,EuNi5As3,0.0
mp-1096992,Hg,0.05619999999999999
mp-30769,Li13Sn5,0.0
mp-571232,YbBr2,4.4692
mvc-8630,CaTi2(PO5)2,2.5527999999999995
mp-1078832,ZrGaNi,0.0
mp-30732,HoTlPd,0.0
mp-765241,VF5,2.9964000000000004
mp-582996,Pr2Al19Co6,0.0
mp-21546,K2CeNb5O15,0.0184000000000002
mp-771867,Ti3VO8,1.5775
mvc-16454,Ca6MnN5,0.7347000000000001
mp-761399,LiCrPO4,2.6114999999999995
mp-851033,LiCo3OF5,2.0078
mp-974330,SBr3,0.0
mp-865910,CdAg3,0.0
mp-695805,Li2FeP2O7,4.2488
mp-18684,KPF6,7.2209
mp-779054,LiV2(OF)3,0.6937
mvc-9125,CaFe2(PO5)2,0.0
mp-1079395,CeGe,0.0
mp-636921,VO2,1.1027000000000002
mp-677308,NaPr2Cl6,0.0
mp-1013582,Ba3Sb2,0.0
mp-1026683,Mg14GaSi,0.0
mp-976259,LiTmRh2,0.0
mp-13055,Ba2LaTaO6,3.6208
mp-1094461,MgZn2,0.0
mp-565729,VHg4P2O9,1.6
mp-1022584,KMg6Zr,0.0
mp-1021392,Mg6SnC,0.0
mp-1037212,Mg30ZnFeO32,3.9586
mp-654937,Ag(CO)2,0.7213
mp-4387,SrZrO3,3.6203
mp-1026554,BaMg14Mo,0.0
mp-705456,Li2FeP2HO8,2.1373
mp-764161,Mn3OF5,0.0
mp-819185,LiFeAs2O7,2.5882
mp-650872,Cs2KCrF6,4.0731
mp-773695,La16Mn15O48,0.0
mp-1079030,Fe3Ge,0.0
mp-715276,Fe2O3,2.1029
mp-767707,Li2Fe5Si5O16,2.117
mp-19902,UCuAs2,0.01609999999999978
mp-765109,LiVCrP2(HO5)2,1.2541999999999998
mp-1094468,Mg2Zn,0.0
mp-1023955,MoW(SeS)2,0.9854
mp-1038429,Mg30BSbO32,2.330099999999999
mp-764651,LiFe2(BO3)2,1.8527
mp-744605,CoPH4ClO3,3.0437
mp-754549,Na2CuO2,0.0
mp-1017291,NaMg6Cd,0.0
mp-556927,RbFeF4,2.8280000000000003
mp-21536,Ni2Mo4C,0.0
mvc-6290,MgCuSb2O7,0.4531000000000001
mp-982881,PmTm3,0.0
mvc-15985,Y2Ni2O7,0.6823000000000001
mp-560671,Rb2NaVF6,0.0
mvc-3786,Ca2Cu2O5,0.0
mp-25908,Sn(PO3)4,3.4585000000000004
mp-1059259,Cu,0.0
mp-1021327,KLiICl,4.4304
mp-581496,Ce3(AgSn)4,0.0
mvc-3810,AlSbO3,0.6959999999999997
mp-27664,TiPCl9,2.1696
mp-645330,Cs4CO4,1.3169999999999995
mvc-8398,MgCr(GeO3)2,0.6151999999999997
mp-867909,ScCdRh2,0.0
mp-32506,Li3V2(PO4)3,1.9769999999999999
mp-12562,CeCu5Au,0.0008999999999996787
mp-778702,Mn6O7F5,0.0
mp-1079414,Er(NiSb)2,0.0
mp-19796,Ba2Nb5O9,0.0
mp-764842,LiVOF3,2.1513
mp-6607,Ca5Si2SO12,4.4382
mp-1094660,MgGa3,0.0
mp-624928,KEu(CuTe2)2,0.0
mp-1034537,Mg14VCO16,0.04190000000000005
mp-765957,Li6V2O5F2,1.2773
mp-1022631,YMg6B,0.0
mp-9089,CsTmS2,2.1573
mp-556094,AgBiSCl2,1.0686999999999998
mp-706608,KPH3O3F,6.6406
mp-1019319,TcN,0.0
mp-863735,ErRh2Pb,0.0
mp-1099068,Mg14MnFeO16,0.0
mp-765195,WO2F,1.6359
mp-1023278,BaMg6Al,0.0
mp-676581,Ag2CO3,0.5938000000000001
mp-704959,CrP2O7,0.5431
mp-767244,LiCoP2O7,1.1067999999999998
mp-764012,V2OF5,1.6175
mp-1025431,SmPt,0.0
mp-30401,KAu2,0.0
mp-675650,Ca(YbS2)2,0.0
mp-510148,UCu5,0.0
mp-558595,Ba6Ru3(ClO6)2,0.0
mp-640531,Sr2CoTeO6,1.6176
mp-17103,Sr3Ta6(Si2O13)2,3.0855
mp-754466,Li2AgF3,2.0522
mp-686689,Y2BeAlBO7,4.340400000000002
mp-542138,Ca3Si2Ni3,0.0
mp-26585,Li5Sb2P5O18,3.5081
mp-765794,Li5Mn3(CoO5)2,0.581
mvc-13971,YSnO3,0.0
mp-1021354,Mg6TiCr,0.0
mp-30244,Mg2H2O3,3.5667
mp-865258,TbYbRh2,0.0
mp-3593,Ta2Sn2O7,1.4852
mp-1017555,CsBeF3,5.5947
mp-10850,SbTePd,0.0
mp-1075025,Mg3Si4,0.0
mp-569341,NdBPt2,0.0
mvc-9468,Mg(BiO2)2,1.4444000000000008
mp-997108,RbAgO2,1.1682
mp-972641,SmHoIr2,0.0
mp-722351,H3PbS2N3,1.9036
mp-976055,Li3In,0.0
mp-1018785,LiFeAs,0.0
mp-16245,CaSbAu,0.0
mp-25487,LiCoPO4F,0.8934000000000002
mp-675749,Sm6Th4O17,1.9197
mp-743741,Co5P4(HO2)10,2.8286
mp-989586,SrTcN3,0.0
mp-777451,Li2FeF4,3.6065
mp-1079112,Y2InPd2,0.0
mp-765559,LiAgF4,1.4119000000000002
mp-28759,Al7(TlS4)3,2.7930000000000006
mvc-3604,Mg3Co2O7,0.4802999999999997
mp-865956,IrCl3,0.7277
mp-8016,AlCuSe2,0.8921999999999999
mp-763802,Li5Mn3F14,1.3601
mp-867353,ThCdAu2,0.0
mvc-6273,YBi3F15,0.9658
mp-771991,Li6NiO4,2.8595
mvc-16413,Zn2Mo3O8,1.5308000000000002
mvc-6563,CaTi2O4,0.0
mp-1028077,HfMg14Mn,0.0
mp-767075,LiVSiO4,2.0535000000000005
mp-11447,UTe,0.0
mp-608204,LiCaNiF6,0.0
mp-566488,Na6U(Mo2O9)2,2.2362
mp-756034,NaSmO2,3.9782
mp-1094035,UGaCu,0.0
mp-850933,Fe4O7F,0.0
mvc-3935,Si3(WO6)2,3.2039
mp-1096692,Sr2ZnGa,0.0
mp-773101,K3Li2Ta6(PO8)3,0.0
mp-768262,V3F10,0.0
mp-867713,Eu2SiO5,0.0
mp-18429,KAg(NO3)2,2.4208
mp-683945,KEr3F10,7.0219
mp-17057,Sr2SnSe3F2,1.4478999999999995
mp-760927,NaTiPO5,2.7735000000000003
mp-684876,Te40Rh31,0.0
mp-625054,AlHO2,5.142600000000002
mp-9132,Ta3SnS6,0.0
mp-694966,Li3V2(PO4)3,0.0
mp-1078571,CaU2(PO2)2,0.0
mp-772261,LaAsO4,3.8186
mp-560560,CdSiO3,2.573
mp-1093862,CrSi2Tc,0.0
mp-691145,Li2NiO3,1.4157000000000002
mvc-15649,MgSnO3,2.0089999999999995
mp-763253,LiCoSiO4,1.4737999999999998
mp-19920,Ce3Ga,0.008900000000000574
mp-18685,SrCu2GeS4,1.0462999999999996
mp-6646,HoNi2B2C,0.0
mp-542336,BaTm2NiO5,2.3979