mpid,formula,gap pbe
mp-565389,K2Ni(MoO4)2,3.4739
mp-775193,Li7Fe3Ni(PO4)6,2.3969
mp-18747,SrMoO3,0.033999999999999815
mp-1022526,KMg6Co,0.0
mp-775685,V3Fe2Ni(PO4)6,0.0
mp-23018,BiSbO4,2.4146
mp-1096155,LiAgPb2,0.1391
mp-755239,Ga2HgO4,0.5638000000000003
mp-18756,BaTm2NiO5,2.2826
mp-631558,Hf2BiB,0.0
mp-569264,NdIr5,0.0
mp-756690,EuAgO2,0.0
mp-1037498,Mg30FeCO32,0.4409000000000001
mp-1093684,BeAlPd2,0.0
mp-2847,ErB4,0.0
mp-568089,CeCoSb3,0.0
mp-1079126,Eu2FeH6,0.11010000000000007
mvc-10170,MgCu2(TeO4)2,0.4939
mvc-10374,Bi4O9,0.0
mp-770543,Mn2O3,0.0
mp-1098948,Mg30TiVO32,0.0
mp-1040416,CsMg30TiO32,0.0
mp-16531,BaLa2FeS5,0.0
mp-569876,LiMgVO4,3.4826
mp-22795,Pb2Au,0.0
mp-554060,Na3Pr14(RuO6)6,0.0
mp-626729,Ga(HO)3,3.9221
mp-774304,Li2V3WO8,1.6917
mp-1096533,Mg2TlHg,0.0
mp-773320,LiFePO4,3.045
mp-677042,Na7Zr4Si5PO24,4.4485
mp-757901,LiSnPO4,3.3427
mp-778252,V5O12,1.0797
mp-4371,Nd(CuO2)2,0.0
mp-763058,FeOF,1.2563
mp-35512,Dy5AgS8,1.731800000000001
mp-1028643,Te3MoWS,0.025799999999999827
mp-6909,BaPrO3,0.0
mp-9278,U2Si4W3,0.0
mp-769593,Li4VCr3O8,2.0140000000000002
mvc-9819,SbO2,1.8265
mp-28837,K3RhCl6,1.7025
mp-764767,LiNiO2,0.0
mp-554229,CsAs3O8,2.2357
mp-1096245,MnBeRu2,0.0
mp-3061,TbNiC2,0.0
mp-554638,Ca2Ru2O7,0.0
mp-6238,Ba2Ta6Te2O21,2.8280000000000003
mp-1016269,Mg7W,0.0
mp-1074562,Mg4Si3,0.0
mp-1096089,LiTaPt2,0.3651
mp-19799,BaPbF6,3.0264
mp-762398,Li2CrSi3O8,3.1126000000000005
mp-999096,Ti2AlCr,0.0
mp-672237,PbO,1.5392
mp-738657,K3GdH6(C2O5)3,2.9734000000000003
mp-10676,Sc2AlSi2,0.0
mp-764838,K2CoP4H10O17,3.0405
mp-862973,PmZn2Ag,0.0
mp-779991,Li2Cr3FeO8,0.3826000000000001
mp-754405,Ce2TiO5,0.0
mp-778894,Li8Mn5Fe3(BO3)8,2.9955000000000003
mp-776832,Mn7Sb(PO4)12,0.0034000000000000696
mp-572537,K4CO4,2.9688
mp-1029801,CsMn2N3,0.0
mp-651347,K3Mo3Se14,0.9008000000000004
mp-561458,Na4Sc2(PO4)3,0.3633999999999995
mp-1095805,Zr2RePt,0.0
mp-1029903,LiNbN2,1.1417000000000002
mp-559447,Gd3Se4O12F,2.7816
mp-625596,H9BrO4,4.166
mp-565587,V3Cd5P6O25,2.0087
mp-1097175,Nb2MoRh,0.0
mp-29985,LiNb6Cl19,0.7273000000000001
mp-554315,CaBeB2O5,5.6922000000000015
mp-22197,UNi4Sn,0.0
mp-542517,Co2Hg2H2S2O11,1.9692
mp-1075851,Mg3Si2,0.0
mp-1017465,BaVO3,0.0
mp-1093818,LiCd2Ir,0.10380000000000013
mp-631525,KHg2B,0.0
mp-28012,ReNF6,2.3176
mp-1027600,Mo3W(SeS3)2,0.4687000000000001
mp-680944,Nb2O5,1.6138
mp-540026,Li2FeP2O7,4.1484
mp-695859,Co3(PO4)4,0.008
mp-757624,Sr3La4O9,3.8438
mp-10795,TaTlS3,0.5987999999999998
mp-754223,Ta2CuO6,0.0
mp-617430,Sr15Fe10(Bi5O23)2,0.0
mp-752837,LiAgF3,0.1187999999999999
mp-759678,Li4Ti15O32,1.9439
mp-5214,TiTe3O8,2.7483
mp-758987,Na5CuHO4,0.2378
mp-973633,LuSi2Ni,0.0
mp-1016659,BaMg6C,0.0
mp-27816,Ag3BO3,0.0
mp-25479,La4CoO8,0.8985000000000003
mp-4757,KReO4,4.0028
mp-4718,NdTaO4,4.0262
mp-978083,Pr2ZnAg,0.0
mp-865022,MnIr3,0.0
mp-561467,YAg3(PS4)2,1.999
mp-1026733,Mg14WC,0.0
mp-774948,V7(WO5)6,0.3452000000000002
mp-561356,Cs2UP2O9,2.1519999999999997
mp-581586,Tl8Sb21As19(PbS17)4,1.4184
mp-1071319,ZnTe,0.29490000000000016
mp-978496,SiB4,0.0
mp-1096377,Ti2GaTc,0.0
mp-865401,Tm2ZnTc,0.0
mp-778626,Li8Mn3Fe5(BO3)8,3.1249
mp-1080219,Li3Mn4O8,0.19469999999999965
mp-1014264,CrN2,0.0
mp-640039,Pu2InRh2,0.0
mp-989633,LaWN3,2.3975
mp-17493,Be3Cd4Si3SO12,0.8171999999999999
mp-686370,Ba6Tb3Nb(SnO9)2,0.0
mp-991027,EuTe,0.0
mp-767725,Sr2CrCO3F5,3.3819
mp-20095,Eu(FeP)2,0.004499999999999282
mp-764515,Li3Fe8(BO3)8,1.3367000000000002
mp-540123,LiFePO4,3.8532
mp-558487,GdP5O14,3.1654
mp-1097252,MnTc2Sb,0.0060999999999999934
mvc-9914,HoMg(SnO3)2,0.0
mp-19459,K2MgV2O7,3.6258
mp-21609,SrCuN,0.2645
mp-11489,Li3Pd,0.0
mp-541466,GdNi(BO2)5,3.1216
mp-1059907,KB,0.0
mp-1076642,NaCrO3,0.0
mp-1021772,Mg6CdNi,0.0
mp-766007,Zr3U7O20,0.0
mp-568319,DyB6,0.0
mp-774399,LiMnF3,3.4213
mvc-16141,Al2CuO4,0.0
mp-12940,HoIn5Rh,0.008099999999999774
mp-775625,Na3Mn2P2(CO7)2,0.0
mp-1032792,YMg6MnO8,0.0
mvc-4352,Al2Si3(NiO4)3,3.42
mp-34042,KY3F10,6.291
mp-675369,NaNO2,0.0291
mp-864940,Mg2PtRh,0.0
mp-770205,Li3MnV(PO4)3,0.8696999999999999
mp-999488,NaDySe2,1.8635
mp-1039470,Ce3Mg,0.0
mp-861594,Pr2TlCd,0.0
mp-1026868,Mg14CrCu,0.0
mp-569129,TlCuPSe3,1.4855000000000005
mp-1098734,Mg30MnCuO32,0.1385999999999994
mp-985554,Ac3Nd,0.0
mp-683944,Pr2Fe14B,0.0
mp-777990,Tm2Sb2O7,2.1304
mvc-8166,TiZnNiP2O9,3.0155
mp-765299,Li2NbFe3O8,1.6136
mvc-9656,CaPr(MoO3)2,1.1796000000000006
mp-773783,Li6V3P8O29,0.9332
mp-671510,Sc3Re2Si3,0.0
mp-769945,Li3FePCO7,4.0565000000000015
mp-976939,Ho2OsPt,0.0
mp-557085,FeS4N4Cl3,0.8885000000000001
mp-22072,YbF3,0.0
mp-976412,Li3Zn,0.0
mp-753108,Yb2TiO5,0.0
mvc-16271,TiZn(BiO3)2,1.9356
mp-32471,LiV(PO4)2,1.3487
mp-978987,SrGe3Pd,0.0
mp-9085,CsTbS2,2.1420000000000003
mp-764016,Na2Fe2O5,0.0
mp-686726,LaTiAlPbO6,1.8576000000000008
mvc-13559,Mg(MnS2)4,0.0
mp-387,CeSb,0.0
mp-643293,SrMgNiH4,1.8124
mp-777939,LiV3OF11,1.4645
mp-676348,NbAg7S6,0.2857000000000003
mp-1084748,Ni(N3Cl)2,0.0
mp-862324,Sc2GaTc,0.0
mp-761520,Li6V3P8O29,1.3462
mp-1097453,Ba2NaCd,0.1715
mp-1032137,Mg6FeCO8,0.30489999999999995
mvc-11662,Ca(FeO2)4,0.0
mp-566285,FeF3,2.6772
mp-764822,Li2VO2F,0.9658999999999996
mp-1080428,NbBr4,0.8548
mvc-2412,Zn2Cr9O13,0.0
mp-1080636,CeSe2,0.9595000000000002
mp-19970,Li3CuO3,1.1938
mp-754422,BaYb2O4,0.0
mp-667342,Bi12PbO20,1.6818999999999995
mp-767437,Co3(P2O7)2,0.33899999999999997
mp-23206,BiPd,0.0
mp-559263,K2Li4UO6,2.1501
mvc-6768,AlCo3F15,0.0
mp-779844,Li6Mn5Fe(BO3)6,2.6031
mp-27218,Ge(BrF5)2,2.9044
mp-760122,Li2CuF4,0.0
mp-31303,Pr4Se3N2,1.3762
mp-2497,GdZn,0.03900000000000015
mp-20498,YbGeRh,0.0
mp-772683,CrFe(PO4)2,1.8281
mp-1079478,PrAgSb2,0.0
mp-1035266,Mg14CuBiO16,0.07530000000000038
mp-672272,Sm2Pd2Pb,0.0
mp-1017082,Mg6GaBi,0.0
mp-861850,Li3CuNi3O8,0.0
mvc-1330,Ba2YNi3O7,0.0
mp-775106,Li2MnV3O8,1.2306
mp-1061732,MgZr2,0.0
mp-685674,Nb40N21O16,0.0
mp-1025378,V2FeTe4,0.0
mp-764844,Li7V4O11F,1.3426
mp-570863,CrCoPt2,0.0
mp-780114,LiVSiO5,2.0535
mp-571256,MoCl5,0.0
mp-621182,TlMo2Cl7O2,2.4074
mp-22810,Ce2MgCu2,0.004700000000000593
mp-865944,ThSnRu2,0.0
mp-1017056,Mg6BW,0.0
mp-772432,FeH4(SO5)2,0.07240000000000002
mp-1372,Cd3As2,0.0
mp-772108,LiTi11O20,0.0
mp-1099144,Mg14MnCrO16,1.0991
mp-631517,BaBeGa,0.0
mp-559902,TeC4(BrF3)2,2.5884
mp-997013,AgClO2,0.0
mp-560552,Gd2WO6,2.3282
mvc-9081,Ti13Al4Si2(SbO14)2,0.0
mp-1028225,KMg14Al,0.0
mp-849354,TiV3O8,0.4220999999999999
mp-1034743,Mg14NiCO16,0.8719000000000001
mvc-260,Sr2YTiCu2O7,0.0
mp-1095863,MgInCu2,0.0
mp-698170,Ca2B5H2ClO10,5.2288000000000014
mp-34260,ZrF4,4.358900000000001
mp-621953,ReC4IO4,2.3533
mp-631311,IrOsW,0.0
mp-721586,BaSi2(H3O4)2,5.0579
mp-765802,Mn12O5F19,0.0
mp-19510,V2Cd(PO5)2,2.1523000000000003
mp-767478,Li4MnFe3(PO4)4,3.8727
mp-1096886,CrN2,0.11250000000000004
mp-24914,SrCrO3,0.031199999999999683
mp-1434,MoS2,1.4223999999999997
mp-1019608,Cs3BO3,2.4689000000000005
mp-767952,NaMnPCO7,0.9159
mp-707981,Y4H9NO13,3.3405
mp-709352,Na2Sc2P4H12C4O13,0.0
mp-10394,CrCoGe,0.0
mp-764949,MnF3,0.25649999999999995
mp-1027409,Mo3W(SeS)4,0.6364999999999998
mp-12103,N2,2.9738
mvc-5922,Ca(SnO2)2,0.9879999999999995
mp-28508,Cd(HO)2,0.9847
mp-510073,RbLi(H2N)2,2.3503
mp-7655,BaSi2,0.0
mp-776662,LiCrPO4F,1.4027
mp-703343,Li2Sn(H5O4)2,4.0087
mp-505311,Sr2CrCuSO3,1.2915
mp-560794,BaNbTePO8,2.7977
mp-581733,Zr4CuP,0.0
mp-19792,Zr(Fe2Si)2,0.0
mp-31641,LiCr(PO3)3,2.9541000000000004
mp-1028200,CaMg14Fe,0.0
mp-555845,BaLiZr2F11,5.7451
mp-756508,NbPHO5,0.13580000000000014
mp-1097161,SrYPd2,0.0
mvc-3477,MnZnF4,3.2142
mp-28381,Cs3InO3,2.1174
mp-1099,NiGe,0.0
mp-772672,Sm2V2O7,1.3499000000000003
mp-764777,CoOF,0.0
mp-705959,V8Sn16H85(C8O9)4,1.5383
mp-505822,TiSiRu,0.0
mp-31002,Rb2Te5,0.2282000000000001
mp-780748,LiVCoO4,2.1929
mp-696717,H7O4,0.0
mp-682592,K2Ca2C2O3F2,0.3043
mp-23265,GdCl3,2.0009
mp-541476,Li2Cr(H2O3)2,3.052
mp-21870,Pr2InPd2,0.0
mp-777489,LiFeF3,3.0799
mp-647275,Ba39Li80N9,0.0
mp-20671,UCoGe,0.0037000000000002586
mp-25073,KMo3(PO7)2,2.1751
mp-1078970,USnPt2,0.0
mp-861556,Li2MnOF3,1.0863
mp-570912,YbInAu,0.0
mp-975461,Hg3Sb,0.0
mp-766760,Li2NiP2O7,4.2423
mp-1040267,CsLiMg30O31,1.9823000000000004
mp-1095427,HfCoP,0.06780000000000097
mp-773222,Li5Cr2Fe5O12,1.5585000000000004
mvc-5670,MgVAsO5,1.719
mp-1095127,USbRu,0.0
mp-763190,Li2VO2F,0.8643000000000001
mp-767912,Li3CoPCO7,2.3451
mp-1003484,MgMn4O8,0.4926000000000004
mp-25681,Na2CoH8(SO6)2,3.2916
mp-11860,HoMnGa,0.0176999999999996
mp-557308,ZnS,2.0245
mvc-10916,CaFeWO6,0.0
mp-11653,BPO4,6.9876
mp-862629,ScRh2Pb,0.0
mvc-3015,SrMn(PO4)2,0.32399999999999984
mp-556216,HIO3,3.0606
mp-566807,FeTe2BrO5,1.8533
mp-6557,Cs2PO3F,4.3991
mp-542734,Rh2O3,0.6193
mp-5920,LiAlGe,0.05640000000000001
mp-649328,Mo9O26,0.6635
mp-684470,Li3Sn2P5O16,4.0922
mp-5732,La2Si2O7,4.781899999999999
mp-770317,Li5Mn2P2(CO7)2,0.0
mp-771731,Li4CrGa3O8,1.3628000000000002
mp-557423,Na2B4O7,5.1481
mp-540644,Sn4SI6,1.2644999999999995
mp-568595,Re4Si7,0.04190000000000005
mp-766251,LiTiSi3O8,0.5985999999999994
mp-771294,Li2FePCO7,2.3412
mp-773179,Li2TiCo3O8,0.0
mp-690128,Mn2CuO4,0.0
mp-1025748,Mo2W(Se2S)2,0.9139000000000004
mp-24171,SrPH3O4,5.7674
mp-14424,Sr(AlS2)2,3.8928
mp-780825,LiMnSiO4,1.0591
mvc-1890,AlCu3(SbO3)4,0.0
mp-762583,Li3MnNi3O8,0.0
mp-772035,BaLaCl5,3.4196000000000004
mp-566026,V2Ni(TeO5)2,1.882
mp-19435,CoMoO4,1.7863999999999995
mp-19232,K2CrO4,3.0699
mp-982780,K3Cd,0.0
mp-542596,Hg(SbS2)4,1.1245000000000005
mp-763084,Li4Nb2Fe3Co3O16,0.835
mvc-3149,Ca4V5(TeO6)3,0.2167999999999997
mp-775518,Li5Ti6FeO16,2.1950000000000003
mp-31552,CoP2O7,0.0
mp-557962,SrLiBS3,2.3921999999999994
mp-16372,ThGe2,0.0
mp-776630,V2O3,0.9127999999999998
mp-782699,Co6OF11,0.8072999999999999
mp-504852,Cs2Na3InO4,2.0661
mp-10133,Sc3BPb,0.0
mp-3887,Li3GaN2,2.3783
mp-776870,Li2V3SnO8,1.2406
mp-971720,ZnGa3,0.0
mp-1077361,BaAsAu,0.3460000000000001
mp-32087,LiMoP2O7,3.9328
mp-774272,V12O29,0.5361
mp-1080496,GdInAu,0.0
mp-30677,Tm3Ga5,0.0
mp-3551,TbAgTe2,1.1179000000000006
mp-608398,NbSNCl6,1.8154
mp-135,Li,0.0
mp-1021296,LiLaMg6,0.0
mp-771869,Li2ZnFe(PO4)2,3.4097000000000004
mp-772457,CrNi(PO4)2,0.0
mp-603613,VH10SNO9,2.9331
mp-765201,Li4MnOF5,0.5609
mp-1097265,Y2ZnOs,0.12519999999999998
mp-14864,Cs2Ti(PO4)2,3.4477
mp-993,DySi2,0.0
mp-764743,Li6MnV3(PO4)6,0.18230000000000013
mp-1026865,RbMg14Cu,0.0
mp-1039713,NaHfMg30O31,0.5741000000000005
mp-770066,Na3NiBPO7,0.3316000000000001
mp-773299,LiMn3CrO8,1.1147999999999998
mp-6473,Ca5P3O12F,5.5142000000000015
mp-1096855,BaCuSeO,0.0
mp-570276,ZrZn,0.0
mp-1039330,CaMg2,0.0966999999999998
mp-1066274,PtPb,0.0
mvc-6415,MgV2O4,0.0
mp-2503,Pd7Se4,0.0
mp-1038482,Mg30BCO32,1.8725000000000005
mp-768969,Bi3B7O12,0.4014999999999995
mp-25536,Li3FePCO7,4.3688
mvc-7100,Zn2AgWO6,0.13979999999999992
mp-864973,Dy2CdIn,0.0
mp-705494,K2B10H13O2,3.7309
mp-29689,Nb3TeI7,0.5113000000000003
mp-765665,VP2H8(NO4)2,2.5778
mp-25776,NiH20S2(NO7)2,5.0600000000000005
mp-675768,Dy14Ti10O41,2.3412
mp-989571,Cs2NaInCl6,2.9904
mp-570363,LiSi,1.3839
mp-1032440,BaMg6FeO8,0.5565999999999995
mp-1080768,LuSnPd,0.0
mp-985579,AlFe2,0.0
mp-860960,Ba4(PtO3)3,1.5671000000000004
mp-758376,Li3Sn2(PO4)3,1.9987
mp-619061,Yb2S3,0.0
mp-12762,PrB6,0.0
mp-762689,Li4Ti2Fe5O12,1.5030000000000006
mp-720360,Na13Ca7S12Cl(O24F)2,5.1477
mp-776497,Li2La3Ti2Nb2O13,0.0
mp-999472,NaLaSe2,2.2767
mp-567907,P3N5,3.5526
mp-23009,Ca2BrN,2.4258
mp-2443,DyHg,0.0
mp-778679,Li5Mn8(BO3)8,0.0
mp-778764,Li24Mn7Cr5O36,1.037
mp-991676,NbCu3Te4,0.9408000000000004
mp-979952,Yb3Ti,0.0
mp-1095161,SmMnGe2,0.0
mp-621964,K2RbBiSe3,2.1256
mvc-7497,CaAgBiO5,0.0
mvc-13900,YCuO3,0.09140000000000016
mp-768523,La3Pt3O11,1.7142999999999995
mp-510240,Rb2Ag4S3,0.1978999999999997
mp-761898,Sb3H18C6N,3.3747
mp-557463,Na3ScSi2O7,3.7748
mp-558305,Rb2Ag4Pd3(NO2)12,1.7792
mp-706228,K4Ti3Co(PO4)6,1.4505000000000003
mp-542680,Na3In2Au,0.0
mp-24818,LiBeH3,4.8836
mp-19555,RbMo2P3O13,2.3407
mp-990972,ErNi5,0.0
mp-558227,K2RbMn2F7,2.9214
mp-1026468,Mg14CdMo,0.0
mp-781634,HfZrO4,3.8824
mp-18274,Ba4LiNb3O12,2.5798
mp-698292,K2ZrCdH16(CO3)8,2.9671000000000003
mp-1075113,Mg3Si4,0.0
mvc-943,Ca(W2O3)2,0.0
mp-31718,Li3Cr2(PO4)3,2.5628
mp-1093924,In2SnPb,0.00240000000000018
mp-765545,LiVF3,2.5456000000000003
mp-561336,Li2Mg2Si4O11,4.9276
mp-1006574,Rb(Zr3Te4)4,0.0
mvc-6171,ZnAsWO5,2.5755
mp-11844,Ho6GaCo2,0.0
mp-9660,Sr2Cu(BO3)2,0.6597
mvc-16353,ZnCr3(SO4)6,0.0
mp-5472,Nb2Cd2O7,2.0805
mp-1095689,SmMn2,0.0
mp-762553,Li2Fe(PO4)2,0.0
mp-28926,Ba5(TiN3)2,1.4777999999999998
mp-23245,ErBi,0.0
mp-780106,FeNi(PO4)2,0.0
mp-777434,Na2NiO3,1.2880000000000005
mp-566988,FeMoO4,0.4286999999999997
mp-20362,Mn3NiN,0.0057999999999998044
mp-1017401,Mg6CdSi,0.0
mp-694999,Na3V2P2O10F,2.093
mp-11713,SiC,1.953100000000001
mp-1008472,CdSiP2,0.0
mvc-848,Sr2YCu2MoO7,0.0
mp-515,TmTl,0.0
mp-647283,Ho2B4O9,5.6073
mp-582828,La3Ge3Cl2,0.0
mvc-4867,CaCuO2,0.3855999999999997
mp-18934,LiV2O5,0.3474999999999999
mp-1076335,K5Na3Nb8O24,1.4584
mp-1026878,Mg14CuW,0.0
mp-1096888,CrN2,0.11209999999999998
mp-20067,Na5OsO6,0.002200000000000202
mp-33332,Co5SbO8,0.02099999999999991
mp-773957,Na3MnSiBO7,1.1301000000000003
mp-21591,ZrCrSi2,0.0
mvc-580,ZnFeO2,0.38010000000000055
mp-32416,V3(P2O7)2,0.3439000000000001
mp-771888,Sr2LaCl7,4.1453000000000015
mp-1064647,KN,0.0
mp-863682,PmGa3,0.0
mp-21264,OsN2,0.20420000000000016
mp-556251,TiNiO3,2.8864999999999994
mp-1080300,CeSe2,0.3476999999999997
mp-771336,Na3MgPCO7,4.4597
mp-1022462,Mg6ZrSb,0.0
mp-614,NaO2,0.0
mp-1080041,Cs2NaBiCl6,3.7076
mp-24412,K2NaAlH6,2.6571
mp-1025368,Ti2VS4,0.0
mp-1027278,Te3MoWS,0.0
mp-1080691,Rb2SnHgTe4,1.1515
mp-1027829,Mg14CuSn,0.0
mp-643741,Sr2YAlCu2O7,0.0
mp-39712,NaCaTaTiO6,2.4426
mp-1095682,Fe2Mo,0.0
mp-30820,Li2AlRh,0.0
mp-626582,Mo(HO2)2,2.5418
mp-1080180,Eu(GePt)2,0.0
mp-26267,Li2Cu(PO3)4,0.2946
mp-780011,Mn6O7F5,0.0
mvc-14925,FeO2,0.8703000000000001
mp-569601,ErSi2Rh3,0.0
mp-556536,Na2Zr(CuS2)2,0.007100000000000328
mp-1080677,Tl2Se3,1.0324
mp-23147,Na4Al3Si3BrO12,4.609800000000001
mp-4441,Ca(CuGe)2,0.0
mp-18622,Hf7P4,0.0
mp-30439,Ta6Be15Cu8,0.0
mp-757541,LiSiBiO4,3.1337999999999995
mp-35033,ZnFe5O8,0.017000000000000348
mp-640563,UCl2O,0.0
mp-554014,Li2Cu5(Si2O7)2,0.21860000000000035
mp-676829,Li49Cu8N19,0.0
mp-569691,YbCu9Sn4,0.0
mp-3501,Er(Fe2Ge)2,0.0
mp-764742,Fe2O3F,0.0
mp-1099307,KSrMg6,0.0
mp-849709,Li4Ti3V2Cu3O16,0.054999999999999716
mvc-13867,Sb2O5,0.0
mp-676666,Rb2CeO3,2.1298000000000004
mp-540689,Ba2SnS4,2.3103
mp-18662,Ho2Si2O7,5.0286
mp-758498,Li2CuSiO4,0.0
mp-510032,Ge3Os2,0.8459000000000003
mp-1078947,Nd(AlAu)2,0.0
mp-1095274,LiYbAs,0.9901
mp-1679,La2Ni7,0.0
mp-776687,Li5FeF8,3.8558
mp-540363,VP2O7,1.233
mp-10421,RbAuC2,2.1979
mp-567719,Pr10(B3C4)3,0.0
mp-30033,CoBr2,0.15999999999999992
mp-753772,Nd4O3F7,0.0
mp-504567,Mn3(CuO4)2,0.007600000000000051
mvc-14941,MoO3,2.0011
mp-985578,AlFe,0.0
mp-540113,Li3Cr2(PO4)3,2.9276
mp-1009539,OsC,0.0
mp-1097049,LiMn2P2O9,0.0
mp-862673,LiY2Ru,0.0
mp-1038767,MgCd,0.0
mp-1033847,Mg14CrBiO16,0.0
mp-868139,Li4Mn2Nb3Cr3O16,0.10729999999999996
mp-1030353,Te3MoWS,0.0
mp-771535,TiV4CoO12,0.6760999999999999
mp-7404,Na3SbO4,2.3773000000000004
mp-762604,Li8VFe7(PO4)12,0.0
mp-775462,LiFeCuO4,0.0
mp-1086666,Sr2TaInO6,3.9309
mvc-5233,Zn(SbO2)2,1.4268999999999998
mp-5773,BaRuO3,0.0
mp-1079133,LuZnSn2,0.0
mp-1075009,Mg3Si4,0.0
mp-676280,NaTaO3,3.4185000000000003
mp-567434,SrLiCoF6,2.1993
mp-29336,Rb2PuCl6,0.3862
mp-8922,Cd(SbO3)2,1.4136000000000006
mp-572361,Cs2Ti(PO4)2,3.5162
mp-772464,Li4Cr3Fe5O16,0.0
mp-695285,SrAlSi5N7O2,1.7336999999999998
mp-562145,CeCO3F,0.17120000000000068
mp-997630,ZnO,0.5251999999999999
mp-638729,Cs2ZrCl6,3.6365
mp-558982,HgC2O2F3,3.2547
mp-24193,NaH3O2,4.3479
mp-905565,MnAlCu2,0.0
mp-1095160,Eu2InPd2,0.0
mp-998900,TcN,0.0
mp-559029,RbC2S2N(OF)4,4.8612
mp-558724,La2SiS5,2.3415
mp-1078133,U2Re2C3,0.0
mvc-3413,ZnSnF5,0.0
mp-773196,LiCoCSO7,0.6872
mp-30453,DyBiPt,0.0
mp-1026651,RbMg14W,0.0
mp-867771,TaCuRh2,0.0
mp-863728,Ho4Ni13C4,0.0
mp-775474,Li4Mn3Cu3(SnO8)2,0.0
mp-20510,Yb(FeGe)2,0.010200000000000207
mp-2002,Cu3Sb,0.0
mp-623449,MnCrF5,2.3453
mp-248,Fe2N,0.0
mp-12996,LaMg2Pd,0.021100000000000563
mp-1018667,CeTeCl,0.0
mp-764368,Li2Mn3OF6,2.4174
mp-23431,CsCu2I3,1.9006000000000003
mp-15208,Nb4GaSe8,0.0
mp-504451,Cs3MnCl5,2.8875
mp-752656,BaLa2O4,3.1295
mp-541885,In3Te4,0.08389999999999986
mp-767256,Li5Si2NiO8,1.1171000000000002
mp-979948,SmNiB4,0.0
mp-1078933,NaCaH3,3.3097000000000003
mp-771372,Li2MnV(PO4)3,1.1384
mp-1020634,SrMgB2O5,4.6961
mp-1031196,CsCeMg6O8,0.0
mp-863372,LiCu2F6,0.0
mp-1037547,Mg30ZnNiO32,4.2665
mp-9293,EuGeAu,0.0
mp-559446,NaPPdS4,1.1721999999999997
mp-1037924,Mg30MnZnO32,2.768
mp-16796,Sr2GdRuO6,0.34609999999999985
mp-1079085,LuInPd,0.0
mvc-8689,BiPO5,0.0
mp-866179,Li2NdTl,0.0
mp-696752,KP(HO2)2,5.6046
mp-1020725,Sr4Li2B12O23,4.6951
mp-38152,Sr(SmSe2)2,1.7782999999999998
mp-31506,Mg32Al36Ag13,0.0
mp-672265,Cu3Pd,0.0
mp-573313,GdSe,0.0
mp-764480,LiMnV(P2O7)2,1.2365
mp-763701,LiCrSiO4,2.0247
mp-554212,Tl2Ni3S2,0.0
mvc-11730,YVO3,0.17930000000000046
mp-961647,CaAgP,0.0
mp-23697,K3AlH6,1.7988000000000002
mp-1099745,SrCa7Fe2(Co3O10)2,0.0
mp-1062153,NbS2,0.0
mp-1100994,TlCu7Se4,0.44010000000000016
mp-850472,LiFe(SO4)2,2.0749
mp-1080187,MnHgO3,0.0
mp-868490,Ti3Co2P6WO24,0.06570000000000009
mp-1006886,CeS,0.0
mp-1080659,OsC,0.2793000000000001
mp-851075,Li4V5O12,0.7449999999999997
mp-778086,Ba3Y2F12,6.4213000000000005
mp-1027634,TeMoWS3,0.0
mp-773893,SnSb2H24C8(SCl)2,2.9968
mp-646565,NaCe4I7N2,0.0
mp-973636,Lu2ZnGa,0.0
mp-1097301,Ti2FeMo,0.0
mp-23734,MgP(HO)7,5.2566
mp-23615,Si2Bi14IrI12,0.15620000000000012
mp-557371,CaBi2B2O7,3.1706
mp-541289,Y2S3,1.4880000000000004
mp-686296,CaGd2Zr(GaO3)4,3.2017000000000007
mp-733613,H6AuBrN2,3.7314
mp-652961,La3GaGe5O16,3.2544
mp-15905,Rb2Mo9S11,0.0
mp-761433,LiCrPO4,2.9298999999999995
mp-13542,ZrGeTe4,0.5876000000000001
mp-604229,ZnH3CNO3,3.6736
mp-776726,LiV2F7,1.7058
mp-568831,Pr2Sc3Si4,0.0
mp-505351,Na3(FeS2)2,0.03960000000000008
mp-777197,Li2MnVP2(O4F)2,0.5015999999999998
mp-1098987,Mg14AlSnO16,0.0
mp-567913,CsAuSe3,1.0418999999999998
mp-850934,Fe6O11F,0.0
mp-601348,LuP2H4NO7,4.9841
mp-761677,LiCoPO4,3.2239
mp-1037419,Mg30FeBiO32,0.022700000000000387
mp-676169,Hg3SeO6,0.0
mp-1075627,Mg5Si9,0.0
mp-556740,NaSiBO4,5.5023
mp-770156,Li4MnCrO6,1.0507
mp-1028159,HfMg14Al,0.0
mp-778430,K8Al2O7,2.2214
mp-558378,Pd3S,0.0
mp-1095420,ZnMoO4,2.4310000000000005
mp-6798,Ba2NaReO6,1.8688
mp-762256,Li3Ni2P2(O4F)2,0.0
mp-581263,Sr13Al6Si8O,0.0
mp-568649,Fe2B,0.0
mp-28514,Ba(BrO3)2,4.3347
mp-757224,Th4P6O23,4.1911
mp-560901,PdSCl,0.9784
mvc-70,Ca2Nb2BiO8,0.0
mp-1075935,BaSr7Fe7CoO24,0.0
mp-1001826,VN,0.0
mp-1008733,Ge,0.0
mp-754767,Fe3(SnS4)2,0.0
mp-22628,CsNO3,3.0696
mp-862702,Sc2AgHg,0.0
mp-37449,Nd5AgS8,1.6121999999999996
mvc-14740,YSbO3,1.6291000000000002
mp-1032679,BaMg6MnO8,0.4737999999999998
mp-1028604,TeWS,0.0
mp-662802,Os6C19SO19,1.7127
mp-1007855,FeNi3,0.0
mp-580307,Mn7SiO12,0.0
mp-1077579,PuSi2,0.0
mp-634418,NaCaSiHO4,4.4923
mp-1028227,Mg14AlB,0.0
mp-779189,Li32Mn13Cr3O48,1.2541000000000002
mp-1028510,Te4MoW3(SeS)2,0.007000000000000117
mp-1079835,Mg(BrN3)2,0.0
mp-28999,Sn4B3Ir7,0.0
mp-1007760,Ge,0.0
mp-650908,Mo5PbO8,1.1244000000000005
mp-25111,Sr3V2O7,0.5916000000000006
mp-763782,Li2Zr7Fe(PO4)12,0.0
mp-755777,Ce2S2O,0.0
mp-38802,Ga2CoO4,1.3514999999999997
mp-8755,KNaTe,1.9491
mp-753179,Li2CuPO4,1.9750000000000003
mp-24843,Ba2CoWO6,2.1040999999999994
mp-28107,Na4Ge2Te5,0.985
mp-917564,FeBr3,0.0
mp-16995,Sm3Si6N11,3.0112999999999994
mp-1098904,Mg30FeNiO32,3.2173
mp-504856,U2Ni12P7,0.003899999999999793
mp-762402,Li2Cr(SiO3)2,1.4258000000000002
mp-765836,Li3V(OF)2,1.1774999999999998
mp-978927,SmEr3,0.0
mp-1039949,CeHfMg30O32,0.12929999999999886
mp-30053,NaCN,5.0374
mp-696130,Li10Ge(PO6)2,4.4506
mp-775058,Li3NbV4O8,0.0
mp-30473,Ca3Ga5,0.0
mp-672227,CaZn13,0.0
mp-863890,Li3V3P8O29,1.0258
mp-1096811,Al(BiO2)2,0.0
mp-643346,Al2Ge(HO3)2,3.8791
mp-618788,Ba(Cu5P2)2,0.0
mp-767692,Li2VF6,2.1057
mp-685615,Na11N7O16,0.07590000000000008
mp-764889,Li9Fe5O12,0.6919
mp-761404,Co5CuO8,0.0
mp-865257,DyZnRh2,0.0
mvc-8400,V2ZnO5,1.9815
mp-763434,Li5MnO3F,2.3168
mp-21099,K2Pb(SO4)2,4.436299999999999
mp-568705,YbIr,0.0
mp-772856,CuHgO2,0.0
mp-765868,TiWO4,0.5586000000000002
mp-694056,BaMg2Al6(Si3O10)3,3.8653