mpid,formula,gap pbe
mp-565250,CeTl5Ni2(NO2)12,0.0
mp-761473,V2Bi4O11,2.326
mp-979039,Th3Au,0.0
mp-673800,U11S20,0.0
mvc-1155,BaYSn4O7,0.0
mp-774136,CrPHO5,0.4052
mp-1038785,MgCd2,0.0
mp-237,TmTe,0.0
mp-1078362,Ca2AlPt2,0.0
mp-684958,TaO10,0.0
mp-853154,LiNbVO4,0.0
mp-864791,PaAgTe2,0.0
mp-14131,K2Pd(NO2)4,2.0739
mp-767100,Li4Ti2Ni3Sn3O16,0.2176
mp-644802,C17F5,0.9742
mp-769207,Y2(SeO4)3,3.0802
mp-646110,Y14(InRh)3,0.0
mp-764014,V3OF11,1.5639000000000003
mp-774362,Li6Mn5Fe(BO3)6,2.6042
mp-555933,Na2P2PbO7,4.2885
mp-30376,ErInAu2,0.0
mp-558465,LaAg(PO3)4,3.7647999999999993
mp-767236,LiFe2(PO4)2,1.2584
mp-777509,Li2Cr(PO3)4,3.4608
mp-23612,K3B6BrO10,5.2120000000000015
mp-570712,SnH16C4(NCl3)2,2.8562000000000003
mp-1017360,NaSrMg6,0.0
mp-1076858,Sr7CaFe7CoO24,0.0
mp-766802,Li5MnF8,1.9824
mp-744930,FeH6SO6,1.4491
mp-705006,LiV(PO4)2,1.9609999999999999
mp-570718,Y2Co17,0.0
mp-622448,NaZr2CoF11,3.2422
mp-866176,Li2PdAu,0.0
mp-780864,LiMn2P2H5O11,0.8278
mp-691136,Ti2Fe4O9,0.9363
mp-761870,H7C3N6Cl,3.9391
mp-978289,Mg3Np,0.0
mp-1016836,ZnOsO3,0.0
mp-1638,SrAl2,0.03200000000000003
mp-631257,AsSeBr,0.0
mp-636599,FeSnRu2,0.0
mp-23411,K2TeBr6,2.2371
mp-978824,Sm2RuAu,0.0
mp-27344,Be(BH4)2,6.1859
mp-999394,Nb3Ni,0.0
mvc-12563,Mn2ZnO4,0.2971999999999997
mp-13276,SrLiP,1.3430999999999995
mvc-7443,MgSnBiO5,0.0
mp-6507,Na2Zn2Si2O7,3.323
mp-864805,Nd2CuIr,0.0
mp-1078703,NaZn4As3,0.0
mp-1080507,Ca2TiMnO6,1.0729999999999995
mp-762316,Li2CrSiO4,1.2517
mp-850969,LiMnSiO4,1.5692
mp-1094314,Sr5Mg,0.0
mp-675122,Na2UI6,0.0
mp-626,La4Rh3,0.032399999999999984
mp-1095499,CsAuCl4,1.8318
mp-761532,Bi17W3O34,2.0217
mp-14600,CaAl2O4,4.3909
mp-756718,Li4Bi2O5,2.6846
mp-530358,PrAl22O34,0.2926000000000002
mp-582883,Pr21Fe8Bi7C12,0.0
mp-1023003,KMg6Mn,0.0
mp-773634,NaLi5Mn2P2(CO7)2,3.5754999999999995
mp-763826,V12PbO30,0.7913999999999999
mp-27897,Ba(NO2)2,2.3587
mp-16744,Y(Al5Fe)2,0.0
mp-15248,K3Nb3(BO6)2,1.9128
mp-30409,Mn2Au,0.010500000000000398
mp-1039334,MgBi,0.0
mp-541720,Ba3DyRu2O9,0.0
mp-7691,YB4Mo,0.2821999999999996
mp-569050,NaW6NCl18,0.6013000000000002
mp-1096226,Y2TcPb,0.0
mp-531484,Y5U2O12,0.0016999999999995907
mp-565259,Cu3WO6,0.09830000000000004
mvc-15084,Mg(FeO2)2,2.2092
mp-562631,K2SO4,0.0
mp-1034875,Mg14TiNiO16,0.0
mp-763241,Li3Cr2P2(CO7)2,0.11119999999999997
mp-1035183,NaLaMg14O16,2.9745
mp-410,YbPt2,0.0
mp-571133,NbSe2,0.0
mp-18860,Li2VSiO5,2.4334
mp-24151,DyH2,0.0
mp-770000,Li2CrCoO4,0.0
mp-1023265,CaMg6Sn,0.0
mp-571612,LiW6CCl18,0.0
mp-569727,BiPd,0.0
mp-989642,Cs2NaAlH6,2.1378000000000004
mp-1063670,PbSe,1.1440000000000001
mp-570857,Y(AlCl4)3,4.0292
mp-643801,K2H6PbO6,2.131
mp-1094702,Ca5Mg,0.0
mp-775799,Hf2N2O,2.1399
mp-6938,ZnRh,0.0
mp-762259,Li2Cu2F5,0.0
mp-2763,Nd2O3,3.8109
mp-763832,Li3MnPCO7,3.7331
mp-20360,PuIn3,0.005500000000001393
mp-756096,Hf2N2O,2.4565
mp-22546,CoAsRh,0.0
mp-765093,LiSb(PO3)4,3.4616
mvc-9843,HoMgTi2O6,0.0
mvc-10979,CaCu2(GeO3)4,0.11820000000000007
mp-10802,RbAs,0.5850999999999997
mvc-15354,Mg2TaSbO6,1.4425
mp-1094260,ZrSn,0.0
mp-559631,Bi6Rh12O29,0.03680000000000039
mp-777093,LiMnP2O7,1.3490000000000002
mp-8832,Tb(CrSi)2,0.0
mvc-8758,ReBiO5,2.8617
mp-1077588,SiNiSb,0.0
mp-557974,BaZn2(BO3)2,3.4811
mp-555425,K2Th(CuS2)2,1.1260000000000003
mp-1438,ZrIr3,0.0
mp-1979,HoPd3,0.0
mp-676499,Cu6PbO8,0.0
mp-690490,TiVO4,0.9899999999999998
mp-571440,K2CuBr3,1.901
mp-778336,LiMnVP2(O4F)2,1.2594999999999998
mp-1077893,Ba(FeSe2)2,0.0
mp-554854,CsLuP2O7,5.1874
mp-1038364,HfMg30BO31,0.5012999999999996
mvc-10383,BaTiZnF7,0.23309999999999986
mp-763090,Co2O3F,0.0
mp-1013922,LiCr2P2O9,0.6364999999999998
mp-30304,Bi3SbO7,2.1625
mp-780203,Li9(FeO4)2,0.024799999999999992
mp-21105,PuSi2,0.0
mp-573812,Cs3As11,1.3912000000000002
mvc-10271,MgCu2(SnO4)2,0.40180000000000016
mp-30139,BeBr2,5.1775
mp-626110,Mo2HO6,0.0
mp-569525,NaLi5N2,0.3542
mp-582813,K10In5Sb9,0.5995999999999997
mp-779849,La2WO6,3.6137000000000006
mp-865947,YbPrAg2,0.0
mp-680530,BiPtPb3,0.0
mp-555037,TaS2,0.0
mp-30487,EuCd2,0.0
mp-1097683,Y2AgOs,0.0
mp-532085,Li2IrO3,0.008900000000000574
mp-765679,Na5(NiO2)6,0.0
mp-765057,Li5FeNi3O8,0.0
mp-561034,Ag9Ge2IO8,0.0
mp-976187,Pr(Al2Fe)4,0.0
mp-560238,K2CuF4,0.109
mvc-15104,Ni(PO3)4,0.15230000000000005
mp-1080172,TiN2,0.0
mp-1096444,BeFeCo2,0.1636000000000002
mp-542078,K2LaP2Se7,1.4926
mp-30825,PaRh3,0.0
mp-767553,Li7Sb2S,0.0
mp-2568,YSi2,0.0
mp-566692,MoPb3Cl2O5,2.1981999999999995
mp-1039854,Mg30NbSiO32,0.9305999999999992
mp-1027982,Mg14ZnSn,0.0
mp-8159,TlCu4S3,0.0
mp-1094152,CeSe2,0.9393000000000002
mp-11288,Ca3Hg2,0.0
mvc-10371,Mn2ZnO4,0.0
mp-754613,K2ErPCO7,4.4968
mp-772330,Na2CoBAsO7,0.33030000000000004
mp-571457,Ti4NiBi2,0.0
mp-1045,Nd2O3,3.708
mp-850976,Mn6O7F5,0.0
mp-23378,EuAgBi,0.030199999999999783
mp-720593,Na2B5H5O11,4.9627
mp-605347,HgTe(H2O3)2,2.0783
mp-866639,KSr2Cd2Sb3,0.2028000000000003
mp-769049,BaLaCl5,3.785
mp-11156,TmMgGa,0.0
mp-972072,YbYPd2,0.0
mp-1073672,MgSi2,0.0
mp-775300,Na3CoO3,1.6212000000000002
mp-556009,MgTlAs(H6O5)2,4.3811
mp-762243,LiNiPO4,3.4608
mp-1095156,CeCoSb2,0.0
mp-1032277,SrMg6CuO8,0.0
mp-762182,Li3Fe2(CO3)4,1.2538
mp-766153,LiNiBO3,3.27
mp-28714,Dy(AlCl4)3,4.2606
mp-24670,Zr6Al2CoH10,0.0
mp-757669,LiCuC2O5,1.2767999999999995
mp-18010,Ta2Pd3Se8,0.6518000000000002
mp-505104,Cu3BiSe2ClO8,0.0
mp-694994,CoH22N7(ClO2)4,1.1316000000000002
mp-767647,LiVF4,2.4038
mp-704209,Mn5(P2O7)4,0.0
mp-972876,Sc3Cd,0.0
mp-771324,Na3CaPCO7,4.190200000000001
mp-17839,K3Na(SeO4)2,3.5517
mp-504650,La3CuSiS7,1.7776999999999994
mvc-3232,ZnSiNiO5,0.0
mp-766966,K2InH2Cl5O,3.4498
mp-31380,SmPd,0.0
mp-27590,CsB9H14,3.8007
mp-764496,Na14Ni2O9,1.3427
mp-3291,AgTe4Au,0.10850000000000026
mvc-5110,Ca2MoO5,0.0
mp-761606,LiMnPO5,0.6677000000000002
mp-27132,Zr2P2O9,4.1075
mvc-5043,Zn2CoWO6,2.4596
mp-15567,Na3AuS2,2.3033
mp-771176,Li2CoSnO4,1.7159000000000004
mp-998195,RbInCl3,0.0
mp-685797,Li6Ti9O20,0.0
mvc-673,AlCr(WO4)2,1.8845
mp-505499,Ta4BTe8,0.0
mvc-7677,BaYCuNiO5,0.2337000000000007
mp-763999,Mn6O5F7,0.0
mp-1033691,Mg14BSbO16,0.4657999999999989
mp-758855,LiZnBO3,3.3925
mp-510127,V6O11,0.34170000000000034
mp-864783,Yb2SbAu,0.009999999999999787
mp-1018947,PtN2,0.0
mp-774702,Li3BiO4,1.3994999999999995
mp-1034998,Mg14CoCO16,1.045
mp-985610,NaAg(CO2)2,1.6802
mp-20741,ReO3,0.10349999999999993
mp-1007992,CrH,0.0
mp-977565,NdBiAu2,0.0
mp-779539,Li2CuPO4,1.2121999999999993
mp-32524,V3(P3O10)2,0.02159999999999996
mp-31489,PNF2,5.0738
mp-34501,Fe2CoO4,1.0111000000000003
mp-779344,Mn12O7F17,0.09499999999999996
mp-1095633,C,2.5995
mp-9521,Th7Te12,0.0
mp-1077277,UPb2,0.0
mp-1014265,Zr2N,0.0
mp-570315,PBr2N,2.9785
mp-16990,Ba10P6SO24,3.188
mp-765320,Li2Fe(CO3)2,4.0751
mp-33526,LiBiS2,0.8113000000000001
mp-571179,AlTeCl7,3.1496
mp-22917,CuBr,0.9949
mp-6455,NaNd(SO4)2,5.5386
mp-30092,TiCl4,3.4576
mp-541269,GaNi2BO5,3.4944
mp-770431,Ho2(SeO4)3,3.7327
mp-10379,Hf3(Cu2Ge)2,0.0
mvc-6640,CaCuW2O7,0.3639999999999999
mp-1070737,K3CO,0.2972
mp-1096299,Li2HgSb,0.0
mp-997541,Fe3Co2Te(PO4)6,0.0
mp-510377,EuBRh3,0.011999999999999568
mp-25705,NaMn3P3(HO6)2,3.4968
mp-540612,BaMn2O3,0.4585999999999997
mp-32117,Mo(PO3)4,1.8009
mp-24118,H10SO8,5.507999999999999
mp-558240,K3Al4P2O8F9,5.456
mp-643273,NaH2Pd3,0.0
mp-705671,La19Mn19O60,0.0
mp-677396,Sr2IrO4,0.0
mp-1094535,Mg2Sn,0.0
mp-30429,Ba8Ga7,0.0
mp-1093785,Ba2TlIn,0.6060999999999999
mp-551886,Na4CO4,2.0001999999999995
mp-20104,RbAg3S2,0.4160999999999999
mp-568540,Ag5Hg4P8Cl5,0.977
mp-20584,RbEuS2,0.013100000000000113
mp-863260,Sr(MgAs)2,1.3464000000000005
mp-8810,SrZn2(PO4)2,3.9629
mp-991740,EuGe3Pt,0.0
mvc-7317,Mg(SbO2)2,2.5792
mp-626362,FeHO2,1.5285999999999995
mp-779994,Li4MnSb(WO6)2,0.2765
mp-10796,HgSeO4,0.8439999999999999
mp-561613,SrV3O7,2.3882
mp-756531,LiNd6(CuO6)2,0.0
mp-18318,Tm2Si2O7,4.5925
mp-504962,K2Na3InO4,1.92
mp-667330,SbP3C(NCl5)3,0.4643000000000001
mp-1076695,Sr7CaTi8O20,0.0
mp-973826,LiHoSn2,0.0
mp-541002,KNa2FeO3,2.3269
mp-780152,LiFeOF2,1.7902
mp-31648,LiCrP2O7,2.3873
mp-849412,V6O5F19,2.0451
mp-1031142,LiMg6GaO8,2.4295
mp-780023,Fe3(O2F)2,0.0
mp-567478,MnSbSe2Br,0.621
mp-17013,Ta5Ge3,0.0
mp-1074458,Mg4Si3,0.0
mp-1408,MgHg,0.4694000000000002
mp-1064606,FeCo2Ge,0.0
mp-975997,NaLi2Pb,0.0
mp-1097430,MnRu2W,0.25760000000000005
mp-13595,Rb2UF6,0.0737000000000001
mp-6997,Sb2Te,0.0
mp-570102,HoSiRu2C,0.0
mp-35005,Na3(WO3)4,0.03329999999999966
mp-27148,BeP2,0.8314000000000004
mp-2832,Cr2Se3,0.0
mp-530121,Mg(GaO2)2,2.0993000000000004
mp-866580,Ca2SnS4,0.8649000000000004
mp-1009746,ScP,1.6192999999999995
mp-625392,Lu(HO)3,4.9552000000000005
mp-770,DyCd,0.0
mp-684922,Np2Se3,0.0
mp-761375,Li2Ti3Ni(PO4)6,0.013399999999999973
mp-866218,Ti2MnRh,0.0
mp-31205,Zr3Fe,0.0
mvc-4258,Ca3Sn2(GeO4)3,0.0
mp-850814,NaSbO2,2.7691
mvc-4659,Mg(SnO2)2,0.0
mp-7277,Tl2GeS3,1.7699000000000005
mp-556112,AuCS2Cl3,1.9557
mp-1077954,Ce(ZnAu2)2,0.0
mp-675329,LaZr9O20,0.0
mp-864894,Be3Rh,0.0
mvc-11666,Mn2AlO4,0.0
mp-650442,Tl3AgTe2,0.5357000000000003
mp-676767,Ba4Yb3F17,0.0
mp-641931,Nd2MnCoO6,1.0807000000000002
mp-2797,YCu5,0.0
mp-754120,Dy2Nb2O7,0.0
mp-1001785,MoP,0.0
mvc-8962,CaLaFeCuO6,0.0
mp-21393,Ce3Al,0.0
mp-578775,Fe3SiP5O19,1.6748
mp-1007853,Fe3Ni,0.0
mp-694892,CaLa3Mn4O12,0.0
mp-569715,CuBi(PSe3)2,0.6481000000000003
mp-567240,Ba(MnSb)2,0.0
mvc-10628,BaCaMnF7,1.7916
mp-616587,RbPO3,4.8466000000000005
mp-683981,Rb8U9O31,1.5396
mvc-7194,BaYCuSbO5,0.0
mp-674436,NdZr9O20,0.0
mp-1096662,BeZnPt2,0.15029999999999966
mvc-683,Ta(WO4)2,0.0
mp-567576,HfFeSi2,0.0
mp-9845,RbCaAs,1.3010000000000002
mp-3868,Pr6Fe13Ag,0.0005000000000006113
mp-1078162,Fe(RhSe2)2,0.0
mp-1562,ThBe13,0.0
mp-7753,MgPd3,0.0
mp-1093633,KNa2As,0.0
mp-779778,LiFePCO7,0.0
mp-567290,LaN,1.1159
mp-570589,SeBr,1.5061
mp-763366,LiNiCO4,0.5358999999999998
mp-1095860,Al2CuNi,0.0
mp-782669,Mn4O7F,0.0
mp-20540,YbSbPd,0.0
mp-973316,NaLi3,0.0
mp-771566,Lu2TeO6,1.4376999999999995
mp-27262,Ca9Zn4Bi9,0.06040000000000001
mp-1078003,DyGa5Co,0.0
mp-9,Y,0.0
mp-9839,K2LiAlF6,7.4418
mp-40963,Na2ZnP2O7,4.042
mp-1079065,Zr3Co,0.0
mp-773901,KZnP2O7,0.0
mp-685869,Zn(Bi19O30)2,0.0
mp-777744,Ba2YF7,6.9627
mp-771581,Na3FeSiBO7,0.0
mp-1079595,NdInNi2,0.0
mp-1076474,KMoO3,0.0
mp-1097358,MgZn2Pd,0.6654
mp-1038614,BaHfMg30O32,0.19390000000000107
mp-669918,VSnRh2,0.0
mp-561287,SrMnV2(AgO4)2,1.8942
mvc-2582,Ba2YTlSn2O7,0.0
mp-549720,NbI2O,0.8338000000000001
mp-753403,LiCu2(CO3)2,0.04940000000000011
mp-779144,Rb3HoO3,2.1339
mp-38347,Ca(Pr2Se3)4,0.00199999999999978
mp-17420,SmC10,0.0
mp-21868,Ba2Lu(CuO2)3,0.11359999999999992
mp-1018062,FeSnRh2,0.0
mp-1095816,Mg2PtAu,0.0
mp-776880,Li2Fe2Ni(PO4)3,1.4259
mp-1065540,AlC3,0.0
mp-972461,Sm3Zr,0.0
mp-1080327,CeSe2,0.06010000000000025
mp-1026586,CsHfMg14,0.0
mp-862868,PbBr2,2.5709
mp-17381,Y3Ge4,0.0
mp-541097,Zr3Pb(O2F3)2,2.8390000000000004
mp-1096968,CrN2,0.0
mp-914067,Ba2SmMoO6,0.0
mp-558393,Rb2Nb3Cl7O5,2.3515
mp-773139,Li4V3Sb5O16,1.2006000000000006
mp-622210,Ba2LaCu3O7,0.0
mp-3427,LiAlO2,4.5899
mp-1030700,Te2MoWSeS,0.1368999999999998
mp-554072,K2CO3,3.6203
mp-621659,La2Ge5Ir3,0.0
mp-1078268,Pr2BC,0.0
mp-1030695,Te2MoWSe2,0.0882000000000005
mp-583509,Ba5(FeS2)9,0.0
mp-1006371,CePS,0.0
mp-764969,Li3MnFeCo(PO4)3,2.2734000000000005
mp-755342,LuGaO3,2.5134000000000003
mp-675822,Dy14(PbS8)3,2.1885000000000003
mp-780217,Li7CuO4,1.9921
mp-9383,SrHfN2,0.4011000000000005
mp-541032,Te7As5I,0.3023999999999996
mp-721330,Rb14Na3Al17Si31O96,2.0598
mp-770489,Li6Cr3Fe(PO4)6,2.3776
mp-1071032,GeS2,0.9558
mp-753945,ClOF3,3.6499
mp-975291,RbLiO3,0.0
mp-978596,Sm2Au2O5,0.0
mp-699672,SrMn2(PO4)2,3.4735
mp-763431,LiMn5O3F5,0.5714000000000001
mp-635347,K2MnH4(SeO5)2,2.2545
mp-22634,K4SrU3O12,2.0705
mp-17704,Tm2SiO5,4.591100000000001
mp-2909,HoAlNi,0.050100000000000484
mp-1094041,SrCa3Mn4O12,0.0
mp-775918,LaTiNO2,1.2144000000000004
mp-864732,Yb2CdGe,0.0
mp-14678,Y3Sc2Al3O12,4.2714
mp-1031480,HfMg6VO8,0.0
mp-778794,V3Cr2Sb3O16,1.1733000000000002
mp-1028010,Mg14ZrFe,0.0
mp-30672,Ti3Ga,0.0
mp-976872,NaNi3,0.0
mvc-10196,CuBiO4,0.016300000000000203
mp-1097606,Zr2InAg,0.0
mp-689993,LiMnP2O7,0.6864999999999999
mp-1079245,SmPdPb,0.0
mp-554827,NaMnCrF6,3.279
mp-30903,Ba3CrS5,0.039200000000000124
mp-1028823,MoW3Se8,1.0016999999999996
mp-975880,PrSmMg2,0.0
mp-558364,Cu4Te5(ClO3)4,0.2763
mp-14150,Ca4Al6SO16,4.905099999999999
mp-1030726,NaMg6WO8,1.2925000000000004
mp-1037497,Mg30ZnCoO32,2.5660000000000003
mp-675102,Ce9GdO20,0.0
mp-622183,Co2PClO4,2.6014
mp-1023933,WSe2,1.5241
mp-1094688,Sr3Mg,0.0
mp-1094457,SrMg2,0.0
mp-700554,LaMo2O5,0.7117999999999993
mp-851292,Li9Nb10Cr6(PO4)24,0.03079999999999972
mp-772697,Li3Co4CuO8,0.0
mvc-14530,CaV2CoO7,2.0284
mp-862797,RbAcTe2,1.1632000000000011
mp-540272,LiNiP2O7,0.0008999999999999008
mp-1018744,LaPbAu,0.0
mp-579718,Th2Cu,0.0
mp-769446,Li11Fe12(BO3)12,1.3312
mp-22375,In2S3,0.6438999999999995
mp-1019800,K8N3O,0.0
mp-973335,Hg2H6CN3Cl5,2.442
mp-690496,Co5RuO8,0.0
mp-9576,KSbSe2,1.1122
mp-764669,Li4V3CoO10,0.7388999999999999
mp-1021449,Mg6VC,0.0
mp-32502,LiV(PO3)4,2.2729000000000004
mp-505545,Lu2FeB6,0.0
mvc-14421,BaCa(CoN2)2,0.2931
mp-767662,Li3Fe3(BO3)4,1.8117
mp-694876,NaSr2LaTi4O12,1.8852
mp-1025269,Ti2CoS4,0.0
mp-616850,Sr2VClO4,3.7723
mp-1031108,NaLaMg6O8,2.1983
mp-973536,LuUO3,0.0
mp-12890,HfU3Sb5,0.0
mp-28159,As(BrF2)3,1.6022
mp-1076296,Ba6Sr2CoCu7O20,0.0
mp-32098,Li3Mo2(PO4)3,4.0333
mp-1057118,MoN,0.0
mp-540330,Li2V(PO3)5,2.2897
mp-1132,CdO,0.10440000000000003
mp-865608,LuPaOs2,0.0
mp-619843,Nb2FeO6,2.2510000000000003
mp-753176,AgCO3,0.0
mp-610652,TiMn2O4,1.5848000000000004
mp-1079086,UAlNi,0.0
mp-14715,Pr2Au5F21,1.7724
mp-1922,RuSe2,0.3113999999999999
mp-978519,Sm2AlCd,0.0
mp-764266,LiMnOF2,0.8498
mp-714875,VO2,1.3523999999999998
mp-16487,Ce(MnAl2)4,0.003199999999999648
mp-769958,MnCSO7,0.05690000000000006
mp-566035,K2Mo2P2O11,2.5305
mp-23316,BCl2,2.9181
mp-759823,LiCuPO4,0.0
mp-623088,KTbF5,0.0
mp-3441,Y(SiRh)2,0.0
mp-540182,LiVP2O7,2.1302
mp-24653,TiH8N2F5,0.2357999999999998
mp-1027921,Mg14ZrSn,0.0
mp-641854,Ba2CaV2CuF14,0.14660000000000006
mp-4255,Ba(CuS)2,0.5059999999999993
mp-769644,LiAlVO4,1.7215000000000005
mp-20610,LuGeRh,0.0
mp-764773,Li4Cr3Co2Sb3O16,0.6461999999999999
mp-4909,V2NiS4,0.0
mvc-16376,CaCu(GeO3)2,0.3338000000000001
mp-1079255,Tb(BIr)2,0.0
mp-13502,TmCoC2,0.0
mp-1031308,KMg6BO8,0.0
mp-28545,RbLiO,2.2543
mp-774232,Li4Cr3Ni3(SbO8)2,0.0
mvc-14249,Ca3Ni2(WO6)2,0.029299999999999993
mp-763013,Fe2OF3,1.3916
mp-862878,PmAg3,0.0
mp-22869,ClO3,1.3649
mp-541567,VSbO4,0.6872999999999996
mp-864642,HoSnRh2,0.0
mp-631310,CoReGe2,0.0
mp-1079776,Hf2Co7,0.0
mp-571268,CuHg3As2Br3,0.09450000000000004
mvc-11231,SbN,0.0
mp-559534,Ba5Al2In2IrClO13,0.2189000000000001
mvc-622,YMn(WO4)2,2.2291
mp-567653,Ti3Ni4,0.0
mp-8830,NaRhO2,1.3773999999999995
mp-1034483,SrMg14NbO16,0.0
mp-676329,Rb5Re3S7,1.6469999999999998
mp-1096949,CuGeI3,0.6909000000000001
mp-21875,Y4GaCo4,0.0009999999999994458
mp-556756,KSb2PO8,2.2122
mp-676330,Nb12Br17F13,0.11929999999999995
mp-776187,Li4Cr(WO4)3,2.2378
mp-1095599,HoCoGe,0.0
mp-999446,Nb3Cr,0.0
mp-686183,Zn(Bi25O38)2,1.9832
mp-1077617,Eu2Fe2O5,0.004299999999999749
mp-569032,PrAu6,0.0
mp-1035776,KMg14FeO16,0.0
mp-27835,K2OsBr6,0.0
mp-546684,PdSeO3,0.6831
mp-1018735,BaTi2As2O,0.0
mp-560570,Rb2NaAl6F21,7.004199999999999
mp-853254,Fe10O9F11,1.1675999999999995
mp-25669,Mo3P3O16,1.1381
mvc-9208,Cu13Si2(SbO14)2,0.0
mp-6578,Ba3B(PO4)3,5.0114
mp-569249,Ta3Au,0.0
mvc-6260,Ca(SbO2)2,2.2443
mp-1098961,Mg30VCrO32,1.6987000000000003
mp-20849,Pd3Pb,0.0
mp-640524,MnNb2O6,2.5620000000000003
mp-22499,EuSnF7,3.9289
mp-632311,Ta2H,0.0
mp-696998,K6BiH3(Cl2F)4,4.1881
mp-973911,Pa3Re,0.0
mp-1094236,Mg2Sn,0.0
mp-30579,ErCu5,0.0
mp-568709,Dy2Ni7Sn3,0.0
mp-1099927,Eu2Ag2O5,0.0
mp-1032997,CaMg6VO8,1.2070000000000007
mp-976380,Nd(NiSb)2,0.0
mp-680193,Ca4Al6O13,3.605
mp-1075928,SrCa(CoO3)2,0.0
mp-1009654,CaGe2,0.0
mp-1097498,Mg2CdSn,0.4466999999999999
mp-541467,CoP2PbO7,2.9639
mp-762660,Li2(NiO2)3,0.2750999999999997
mp-772695,Na3Fe(BO3)2,2.2908
mp-780579,Li3V3P8O29,1.2389
mp-540678,Yb3S4,0.6597999999999997
mp-867312,KNpCuS3,0.0
mp-2482,CaC2,1.3416
mp-542197,Ba4Ca4Tl3Cu6O19,0.0
mp-1031027,LiMg6CrO8,0.6619000000000002
mp-570450,Tm3Mn3Ga2Si,0.0
mp-567389,Li2ZnGe,0.0
mp-773994,Li2V3FeO8,0.0
mp-850168,Li5Mn6(BO3)6,0.0
mp-566540,Na2CrNiF7,3.8792
mp-976799,Ni3Bi,0.0
mp-12561,TaAs2,0.013399999999999856
mp-605650,Ba5Ga5Pb,0.0
mp-611642,NiPbF6,2.3018
mp-690117,K(WO3)6,0.0
mp-558842,Sm7BP2O17,4.7886000000000015
mp-6064,Sr3MgPtO6,2.6841000000000004
mvc-12638,Mg(NiO2)2,0.0
mp-12027,TaTlSe3,0.31020000000000003
mp-754334,NaTmO2,4.1184
mp-1016217,Mg3Zr,0.0
mp-554053,SrGaBO4,3.7452
mp-1023939,MoS2,1.5510000000000002
mp-865021,Be2RuPt,0.0
mp-568449,Sm2AlGe3,0.0
mp-697789,LiCrP2O7,1.117
mp-556424,RbVF3,2.4491
mp-558947,SiO2,5.6495
mp-566812,Sr9LuV7O28,3.6781
mp-765355,Li4V3P8O29,0.9650999999999998
mp-759386,Ce2Th2O7,0.0
mp-1078487,Zn(NCl)2,0.8134000000000001
mp-11793,SmCuSe2,0.7755999999999998
mp-865051,NaCa2Tl,0.0
mp-1093670,LiHg2Rh,0.5114000000000001
mp-1097292,Nb2FeTc,0.0
mp-764179,Li3VO3F2,2.5993000000000004
mp-1069801,Ho2AlNi2,0.0
mp-4728,Cu2GeSe3,0.0
mp-720340,Ca5Ti3NbAl(SiO5)5,2.9144000000000005
mp-850329,Fe4O3F5,1.4527
mp-777965,Na4Ti11O24,2.2516
mp-555184,SmTiClO3,3.2110000000000003
mp-625468,Lu(HO)3,5.0249000000000015
mp-30533,KPt2S3,1.2689999999999997
mp-1079254,Co2As,0.0
mp-646895,SiO2,5.7038
mp-9487,USiAu,0.0
mp-1007692,HfPd,0.0
mp-778701,Li6MnV3(PO4)6,0.20340000000000025
mp-772644,Li6Cr(BO3)3,2.3399
mp-1096816,Al2ZnS4,1.6622
mp-776012,Ti3FeCu2(PO4)6,0.0
mvc-9133,Al4Cu13Si2(SbO14)2,0.0
mp-1096437,Cs2HCl,2.3183
mp-1026788,LaMg14Ga,0.0
mp-601833,Fe13Ge3,0.0
mp-773282,LiMn3(FeO4)2,0.0573999999999999
mp-31644,Li3Cr3(PO4)4,1.7131999999999998
mp-13234,Lu5Si3B,0.0
mp-566917,Ba3Na2Cr4F20,3.5814
mp-704577,Na2Co2(B4O7)3,2.7499
mp-755731,Ta2Pb2O7,1.6231
mp-686833,Sr7LaCu4(BiO3)8,0.6090000000000004
mp-15621,AlSb,0.02210000000000001
mp-768754,LiBi2(SO4)3,0.6097000000000001
mp-777496,Li32Ti13Cr3O48,1.2869000000000002
mp-1029640,Ba3OsN3,0.0
mp-1019892,La2B8O15,4.385699999999999
mp-774732,Li5BiS4,1.2581000000000002
mp-973334,NaMg,0.0
mp-10316,CeCdAsO,0.0
mp-686607,K15Nd7Zr9(PO4)24,4.2042
mp-1033703,LiYMg6O8,4.0027
mp-573877,Tm3(CuSn)4,0.0
mvc-2883,Sb5(TeO6)3,0.17390000000000014
mp-1097542,AlTc2Sb,0.008799999999999919
mp-669426,SiO2,5.6183000000000005
mp-695782,Li2Cr3(P2O7)2,2.1845
mp-30739,Mg3Ir,0.03690000000000016
mp-13218,YMg2Cu9,0.0
mp-1098712,SrMg30MnO32,2.0349000000000004
mp-978269,MgZn2,0.0
mp-708015,Na2CuH20C12(N2O3)6,0.8796999999999999
mp-972502,Sm3Dy,0.0
mp-5915,TlNO3,2.8225
mp-1080622,KRhF6,0.0
mp-1038159,CaMg30CuO32,0.02289999999999992
mp-722896,Mg7Si4(HO8)2,3.8438
mp-6290,NaInP2O7,3.7446
mp-574224,Cs4SiTe4,1.8366
mp-771210,Li3CrFe3O8,0.0
mp-30640,Tm2Fe17,0.0
mp-761588,MnCo3O8,0.8144
mp-1077470,CaNiGe,0.0
mp-868349,LiFeSiO4,2.6311
mp-973750,LuTe2,0.0
mp-1094441,YMg2,0.0
mp-776173,Ti3Cu2Sb(PO4)6,0.03730000000000011
mp-30618,DySnPd,0.0
mp-16033,Sm2TeO2,1.4223999999999997
mp-769366,Nd3SbO7,2.5869000000000004
mp-1093571,CaAgAu2,0.0
mvc-7514,Bi2O5,0.0
mp-676728,CdSnAs2,0.0
mp-546443,LiHO,4.0057
mp-776761,LiCr(SO4)2,2.1597
mp-30060,Sn5(BRh3)2,0.0
mp-1030307,Te2MoWSeS,0.0
mp-976824,MgPb3,0.0
mp-865145,NaTl2Bi,0.0
mp-540021,LiMn2P3O11,0.9959000000000002
mp-1097582,Y2MgPb,0.08369999999999989
mp-581194,CsB5O8,5.9417
mp-571437,La20C20Cl13,0.0
mp-777228,Li2MnVP2(HO5)2,0.6859000000000002
mp-769563,Li4V3Cr3(TeO8)2,0.8393999999999995
mp-1028009,Mg14ZnW,0.0
mp-695948,PH4SNO2,4.1913
mp-1074061,Mg9Si5,0.0
mp-600014,SiO2,5.7274
mp-23348,KFeBr3,0.15759999999999996
mp-10138,Y(BRu)4,0.0
mp-27832,Tl2SnCl6,2.4814
mp-20000,Nd(NiSn)2,0.0
mp-30531,Ta2Se8I,0.0
mp-771442,Li5Fe2Ni3O10,0.0
mp-774527,Na2Ti12O25,2.7649
mp-1096055,Y2ZnPd,0.05390000000000007
mp-567908,Lu4B3C4,0.0
mp-540007,MnPO4,0.7035000000000002
mp-30975,Na3BO3,2.9456
mvc-10874,Ba(FeO2)4,0.0
mp-862604,Re3Ni,0.0
mp-735484,CrP2H17N4O9,3.9867
mp-644529,TbGa2Co3,0.0
mp-667320,SeCl4,2.855
mp-504674,Ba2EuReO6,0.002299999999999969
mp-568604,KHgC2IN2,2.6356
mp-756912,LiZnBO3,2.9774
mp-1100171,CsMg6Mo,0.0
mp-556006,OsCl4O,1.0149
mp-30965,NaClO2,2.4090000000000003
mp-625452,Pr(HO)3,3.812
mp-756935,Li3SbO3,2.8939999999999997
mp-765409,LiCoPO4,2.2678000000000003
mp-764992,Co29Ge13O56,0.0