mpid,formula,gap pbe
mp-864602,Nd2MgTl,0.0
mp-557417,As2Cl3OF5,3.3000000000000003
mp-743954,MoH12N3O5F3,2.802
mp-1075277,Mg3Si4,0.0
mp-1026886,LaMg14Co,0.0
mp-1080814,Lu2InCu2,0.0
mp-1009129,MgO,3.0152
mp-9578,Ba3(AlSi)2,0.0
mp-570831,U3NbSb5,0.0
mp-568610,Bi,0.0
mp-12495,CsTbCdTe3,1.5451
mp-540838,Ni3B7IO13,2.4181
mp-570988,La2PBr2,0.0
mp-912986,UTe,0.0
mp-669456,La2Al3Ge4,0.0
mp-721180,UH14(NO2)4,2.2385
mp-755612,DyGaO3,3.6351
mp-9901,Sc3Co2Si3,0.0
mp-566337,VAgO3,1.6344999999999998
mp-1093720,Al2TcRh,0.0015000000000000568
mp-1094284,SrMg2,0.0
mp-777459,Li3FeF6,3.814200000000002
mp-22678,Ce2Sb,0.0
mp-775230,Li3CoPCO7,2.8354
mp-631509,ZrBeCd,0.0
mp-1025956,Te2Mo2W(SeS)2,0.3221000000000003
mp-4579,LaSiRu,0.0
mp-19862,EuSi2,0.013300000000000093
mp-767251,Li2VSiO5,2.2562
mp-32327,LiNiPO4,3.5268
mp-771577,Li4FeNi5O12,0.0
mp-1074639,Mg4Si3,0.0
mp-1025021,YbMgCu4,0.0
mp-561065,MgTi2(PO5)2,3.1211
mp-561150,Yb(ClO4)3,0.0
mp-556218,SiO2,5.8913
mp-24764,AlH36C12S6(ClO2)3,3.7828
mp-22154,In2Au,0.0
mp-1013703,Ca3BiAs,0.0
mp-1097092,Y2AgRh,0.0
mp-1064865,Ba2SrNp,0.0
mp-761965,LiCoPO4,2.4382
mp-765055,Li2Mn2F7,0.12080000000000002
mp-1039820,Mg30SiBO32,0.15710000000000154
mp-770797,LiMn2O4,0.2907000000000002
mp-989542,Ba6Tl2NCl,0.0
mp-610687,CeSnRu,0.0
mp-861913,LiDy2Al,0.0
mp-720338,Sr7SiB3NO13,0.0
mp-19990,BaTiO3,0.014399999999999746
mp-983365,K3Hg,0.0
mp-631274,KFeP,0.0
mp-567416,Ho3Mn3Ga2Si,0.0
mp-774995,Fe5(OF4)2,0.9344
mp-554821,Tb(IO3)3,3.4104
mp-1036119,Mg14MnCO16,0.5110999999999999
mp-17188,U(Al10V)2,0.0
mp-866501,CsGe,0.9828
mp-780907,Mn2OF3,0.3097000000000001
mp-22951,BaIF,4.0263
mp-1029264,Te4MoW3Se4,0.38180000000000014
mp-1097267,Be2RuRh,0.08650000000000002
mp-773434,TiNi5(PO4)6,0.0
mp-1031973,YMg6BiO8,0.0
mp-14535,In(PO3)3,4.3968
mp-1009134,MnFe,0.0
mp-1013642,Ca3AsP,0.1943000000000001
mp-696987,CsH(CO2)2,2.7051
mp-850916,LiCoOF2,0.22899999999999998
mp-34663,NaAsSe2,0.028200000000000006
mp-631694,InCoSi2,0.0
mp-12965,ErNi4B,0.0
mp-24917,Cr2TeO6,1.3975
mp-626297,Ba(H8O5)2,3.6849
mp-556842,CuH12(N5O4)2,0.7679
mp-2668,Mn3As,0.0
mp-763334,Li4Mn5Cr(PO4)6,0.2285999999999997
mp-744954,NiH12(NO6)2,3.3164
mp-770086,FeNiO3,0.0
mp-1078077,V2CrS4,0.0
mp-645014,Yb3Fe5O12,0.0
mp-984707,ErTa3,0.0
mp-862864,Pa3Ge,0.0
mp-2145,ErSi2,0.0
mp-849990,LiMn2(BO3)2,0.31509999999999994
mp-28597,Na5InTe4,1.2161
mp-1026852,KSrMg14,0.0
mp-540988,Cs2FeO4,1.7023
mp-504884,Cu3AsS3,0.0
mp-645282,Al3Bi5Br12,1.5953
mp-1099694,SrCaCo2O5,0.0
mp-568531,Bi2Pt,0.0
mp-675593,K3(VS2)5,0.0
mp-1094072,Pr3AlN,0.0
mp-20484,Li2FeCu(CN)6,2.2661
mvc-8311,MgFe4(CuO4)3,0.0
mp-777479,VO2,1.3786999999999998
mp-1026874,Mg14CuB,0.0
mp-21195,Gd(Al2Cr)4,0.005600000000000271
mp-981310,Tl3Ge,0.0
mp-1008881,MgNiH,0.0
mp-1073021,Mg2Si3,0.0
mp-1080371,CeSe2,0.991
mp-1097787,Ca2Co2O5,0.20550000000000024
mp-1095148,TiFeAs,0.0
mp-865872,LiZr2Re,0.0
mp-765530,Li2VF4,2.7339
mvc-880,MgCr3(P2O7)2,2.0229
mp-1079918,CaCO3,4.848599999999999
mp-1018642,Y(CuS)2,0.0
mp-675648,Pr9Be4O20,0.030899999999999924
mp-1032309,BaMg6CoO8,0.5120000000000005
mp-2413,Ce3Al,0.002000000000000668
mp-582924,Zr6Fe23,0.0
mp-778222,Na3VO3,0.5888
mp-29432,NaScCl4,3.8115
mp-1027867,HfMg14Zr,0.0
mp-936838,Mn3(SiTe3)2,0.0
mp-30068,CIN,4.3987
mp-743573,KBaFe2(PO4)3,2.5398000000000005
mp-851280,Li3Mn4(BO3)4,0.3951
mp-776826,Li4Co3Sn3(SbO8)2,0.375
mp-570486,NbP2Se2Cl5,1.3226
mp-1093598,Y2IrPt,0.0
mp-1098727,YMg30MnO32,0.0
mp-1756,ThB6,0.0
mp-20545,Cu3AsS4,0.0
mvc-600,Ba(SnO2)4,0.0
mp-1039263,MgBi2,0.0
mp-1027843,Mg14ZrMo,0.0
mp-1037085,LiMg30CoO32,1.6338000000000004
mp-24407,CdP2H6O7,4.8402
mvc-14464,SnF3,1.9534
mvc-1123,BaAlCu4O7,0.0
mp-779825,LiV2(OF)3,0.9139
mp-14019,NiB,0.0
mp-555821,Na4Cu(AsO4)2,0.6881000000000002
mp-626210,Sr(H8O5)2,3.4569
mp-775509,Li4CrTe2WO12,0.0
mp-769397,MgSO3,4.9784
mp-1029259,Te2MoWSe2,0.2509999999999999
mp-19011,Ba2NiTeO6,2.3866000000000005
mp-25603,LiNi(WO4)2,0.0
mp-762490,LiFeP2O7,2.5752
mvc-277,Sr2Cu2SnO7,0.0
mp-766943,MnCd4O5,0.0
mp-6922,SiO2,5.5311
mp-1034061,Mg14TiBiO16,0.0
mp-1020670,SrB4O7,5.1759
mp-1028263,RbMg14Sn,0.0
mp-12962,Zr6FeSb2,0.0
mvc-6617,Zn(AgO2)2,0.0
mp-766665,Li6V(SiO4)2,1.7099000000000002
mp-1008920,Mn2Ge,0.0
mp-28349,H2NO2,3.3949
mp-753792,Ce5Sm2O13,1.3319
mp-30624,Dy11Sn10,0.0
mp-862900,PmCu2Sn,0.0
mp-1079249,TbH3,0.0
mp-643010,Cs2H4Pt,3.2534
mp-763320,V3OF11,1.5229999999999997
mp-861914,Ba3Co(CN)3,0.7976999999999999
mp-1095988,Sr2AgHg,0.0
mp-770604,Li2CoH8(CO5)2,3.1877
mp-776860,Li4Fe3Co3(WO8)2,0.5912999999999999
mp-867190,Pr4Ge7,0.0
mp-765682,Li3V3CrO8,0.1876000000000002
mp-3433,YMgNi4,0.0
mp-767642,Li4MnFe2(BO3)4,1.9108000000000005
mp-566459,VBiPbO5,2.9403
mp-13947,Rb2HfF6,7.1298
mp-978985,SnBr2,1.7809
mp-765614,NaNi3O4,0.0
mp-780377,Lu2P4O13,5.6508
mp-770979,Li2AlVO4,1.6555
mp-27793,Nb2Se,0.0
mp-618571,KVPbO4,3.4744
mp-774413,MnV3(PO4)6,0.6879000000000001
mp-1023338,CaMg6Cu,0.0
mp-1097451,ScMnPt2,0.0
mp-8651,Gd(AlSi)2,0.0
mp-771800,MnSn3(PO4)4,0.7295999999999996
mp-667343,Re2(HgO2)5,1.1042999999999998
mp-684747,Bi2O3,1.6863
mvc-8639,MgBi2(PO5)2,2.0539999999999994
mp-11453,HfPd3,0.0
mp-753455,BiOF3,1.6746
mp-1077803,CaNi5,0.0
mp-867108,LiDyTl2,0.0
mp-1080446,K2OsO6,0.0
mp-705033,Cr2AsC10ClO10,1.7707000000000002
mp-762775,Li2Fe2Si2O9,0.01739999999999986
mp-505391,Li6CoCl8,0.3229
mp-1096788,Zn3(GaS3)2,0.0
mp-1064282,InC3,0.0
mp-774076,Li4Mn3Fe(BO3)4,2.9623
mvc-1,NiS2,0.08729999999999992
mp-6168,K3Nb2CuSe12,1.2689999999999997
mp-767288,Li6VCrP2(CO7)2,1.9883
mp-677509,K4N2O5,0.3607
mp-566704,RbMn6As7O24,1.6908
mvc-12083,Mn4(CuO4)3,0.0
mp-769524,Li11Nb4(Ni3O8)3,1.2303999999999995
mp-5913,Pr2Si2O7,5.1705
mp-771739,Li3Mn(SbO3)4,0.0
mp-22901,KI,3.24
mp-555743,LiZnPO4,4.1939
mp-621502,Na2FeNiF7,2.8363
mp-608439,Pb2O3,1.0516000000000003
mp-22894,AgI,1.3877000000000002
mp-3173,CaAlSi,0.0
mp-1031296,KNaMg6O7,0.4468000000000001
mvc-5178,Ca2YTiO5,0.0
mp-1079352,SrRuO3,0.0
mp-546877,V7O3,0.14430000000000032
mp-1247,Sb2Ir,0.4870000000000001
mp-21906,U20Si16C3,0.0
mp-1030575,Te2Mo3W(Se2S)2,0.0
mp-23318,BiSCl,1.9601
mp-29072,Nb2SiTe4,0.3394000000000004
mp-762536,LiFe(PO3)4,2.2948
mp-1097572,TiCu2Au,0.0
mp-761624,LiFeSi3O8,3.2145
mp-698446,H24PtC8(NF3)2,2.8681
mp-1079203,NdGe2Pd,0.0
mp-1078873,Mn3Ge,0.0
mp-768347,Li8NbS6,0.0
mp-1025451,HfNi2Sb,0.0
mp-546920,Li(CO)2,2.2184
mvc-12789,ScMo3O8,0.0
mp-582900,Li3Mo3P3O17,1.8735
mp-697774,Li2Cr(PO4)2,0.0
mp-862773,TeI2,0.7143999999999999
mp-10048,GaAs,0.0
mp-777488,Li3FeF6,3.9812
mp-974517,NdErMg2,0.0
mp-540435,Li2Mo(PO4)2,1.6107000000000002
mp-1076831,KNa(MoO3)2,0.0
mvc-11659,CaV4O8,0.0
mp-554925,BaVZnP2O9,2.3917
mp-540064,LiCo(PO3)4,0.9516
mp-773329,Li6V3P8O29,1.3586
mp-867768,ScZnPt2,0.0
mp-30993,LaIO,3.2887000000000004
mp-743901,Ca2Mn7Si10H12O35,2.8581
mp-775602,Na5Ni2P2(CO7)2,0.0
mp-605374,CsU2H3(C2O7)2,2.0856
mp-8586,InBF4,4.532
mp-974038,Ni2W4C,0.0
mp-704123,CrF4,1.5634
mp-566252,Ba2VP2O9,2.5501
mp-1021906,Mg6NiC,0.0
mvc-552,Sr2Y2W2O7,0.2199
mp-770613,Tb2WO6,2.4635000000000007
mp-757343,Ca4Bi6O13,1.7238000000000002
mp-541415,KH5S2O9,5.4879
mp-778774,Li4MnH6(S2O9)2,4.5112
mp-689975,LiMn(PO3)4,0.6489
mp-542377,Na9Sn4,0.0
mp-755376,Er2TeO6,3.0329
mp-865427,KSrCO3F,4.0934
mp-777726,Mn6O5F7,0.1584000000000001
mp-31036,CuTe2Br,0.7393000000000001
mp-1026725,LaMg14Sb,0.0
mvc-12574,NiO2,0.8079000000000001
mp-763934,Mn3OF5,0.8089999999999999
mp-760698,Yb2TiO5,0.0
mp-560320,KBa2(PO3)5,5.1425
mp-675433,Mn2SbTe,0.0
mp-19409,Mn(AsO3)2,1.7301999999999995
mp-571216,Sr3(AlGe2)2,0.0
mp-20001,SrSnPt,0.0
mvc-404,Ca(Sn2O3)2,0.0
mp-19913,Ba3(InP2)2,1.1092
mp-771499,LiFePCO7,0.0
mp-14526,Na4Hf2(GeO4)3,3.7466
mp-1071920,ThGe2,0.0
mp-636978,KCuCl3,0.24149999999999994
mvc-7658,CaTiAs2O7,2.6932
mp-1079569,Te(NO3)2,1.3313
mp-1093761,Sc2OsRu,0.1008
mp-972285,Sr3Li,0.0
mp-22293,PrZnSn,0.0
mp-775578,Li4Ti2Co3Sb3O16,0.0
mp-10716,YbRh3C,0.07040000000000024
mp-754307,BaNdO3,0.0
mp-557992,InTeClO3,3.0723
mp-769928,Li4NbV3O8,0.0
mp-742,Ti2Cu,0.0
mp-770370,V3BO6,1.2364999999999997
mp-690244,Lu4V4O13,0.3342999999999998
mvc-8147,W3O8,1.6341
mp-2486,UC2,0.0
mp-752678,AgAuO3,0.0
mp-763604,Li3Mn(CO3)4,0.009300000000000086
mp-568920,CaAu5,0.0
mp-776366,LiFeF4,4.0775000000000015
mp-778614,Li4Cr2Ni3Sn(PO4)6,1.9375
mp-775107,Li3Co2SbO6,0.5606999999999998
mp-771191,Li5Co7O16,0.5879000000000001
mp-1034177,RbMg14BO16,0.4594000000000005
mp-777615,Sb2(SO4)3,3.3325000000000005
mp-753853,U4BiO10,0.0
mp-18925,Li6CoO4,2.5077
mp-632656,HoH3,0.051500000000000316
mp-1096402,In2IrRh,0.0
mp-769425,YFeGe2O7,2.5831
mp-764540,Mn6O5F7,0.0
mp-772598,MnO2,1.5915
mp-615626,Na5Mn3F14,1.3817
mp-866516,Ce3AlCrS7,0.0
mp-849067,CrS,0.0
mp-762614,Li2TiMn3O8,0.9567
mp-849232,LiFeF3,3.2868
mp-540868,Ca3Si(ClO2)2,4.7661
mp-863971,K2Mn3P4(HO3)4,4.2743
mp-1095897,Ti2ZnIr,0.0
mp-560173,KAlSiO4,4.5482
mp-975292,RbMoO3,0.0
mp-768004,MgFe11O18,0.0
mp-1019726,EuMg3SiN4,0.15890000000000004
mp-686724,Sr2La14Mg4(Ga4O15)3,2.7061
mp-24192,ErH2,0.0
mp-22720,RbSr2Nb3O10,1.4646
mp-5866,MnCuSb,0.0
mp-532294,Er2CdSe4,0.5857999999999999
mp-556826,Ca(BO2)2,5.456799999999999
mp-698708,CsTiCoOF5,2.3608
mp-31037,CuTe2I,0.8199000000000001
mp-568725,Dy(FeB)2,0.0
mp-20890,Eu(FeAs)2,0.0057999999999998044
mp-866952,Ca5Sn4S13,0.0
mp-765834,Li6V2OF11,1.6569999999999998
mp-1021721,NaMg6Ni,0.0
mp-570492,CdI2,2.4084000000000003
mp-721604,CuH4C2S2N2Cl,0.9968
mp-753719,SrLiNb2O6F,1.7698999999999998
mp-761533,Li6Cr3Ni(PO4)6,0.34119999999999995
mp-1013526,VS2,0.0
mvc-10467,ZnCu2(MoO4)2,0.9746
mp-568293,Ca3N2,1.2985999999999995
mp-626865,H2WO5,2.4402000000000004
mp-30961,Ca7Tl3N2,0.0
mp-2180,HfSb2,0.0
mp-1095876,CaMgZn2,0.1247999999999998
mp-766034,Sr5(IrO3)6,0.0
mp-733840,GaH12N3(OF2)3,5.2162000000000015
mp-541899,CsCdBr3,2.9022
mp-1069611,Tm2AlNi2,0.0
mp-864742,Na3Sn,0.0
mp-583,CoAs,0.0
mp-1095615,CeAsS,0.0
mp-4077,Cd(CN)2,6.0857
mp-767393,Li15Ti11Nb5O42,2.2795
mp-573376,Lu2CCl2,1.0343999999999998
mp-22982,CuBiS2,0.4640000000000004
mp-768505,LuGaO3,2.8828
mp-765898,Li3TiMn3O8,0.9693
mp-22990,CsICl2,2.2034
mp-1094337,MgTi,0.0
mp-675299,Ca2SiO4,3.7086
mp-700144,SrV2(NiO4)2,2.8139000000000003
mp-864762,LiMg2Zn,0.0
mp-763691,Li2(FeO2)3,1.3396999999999997
mp-706654,HS3N,2.8601
mp-18595,LuCu(BO2)5,0.9510999999999998
mp-1094306,SrMg,0.0
mp-1095617,ReNO4,0.0
mp-1026413,KRbMg14,0.0
mp-1098345,HfMg30SnO32,0.0
mp-1003313,Li2Mn3O6,0.016499999999999737
mp-568105,Ba2Zr6BCl17,1.0883000000000005
mp-1096555,Ba2CdGa,0.0
mp-776427,ZrO2,3.5895
mp-585236,LiCoPO4,2.9335
mp-991219,Fe8N,0.0
mp-1080354,CeSe2,0.6580000000000001
mp-675693,Na2CdO2,0.7806
mp-1026438,Mg14CdSb,0.0
mp-1094504,MgZn2,0.0
mp-769934,Na2Mn2O3,0.026600000000000186
mp-31469,Hf5CuSn3,0.0
mp-573321,TePdI2,0.5150000000000001
mp-1080518,HfSnRh,0.0
mp-764001,Co6O7F5,0.0
mp-1098788,NaMg30FeO32,0.0
mp-976271,KTi2F7,0.0
mp-676988,Na3HoTi2Nb2O12,2.5575
mp-863290,Rb5Fe3(SO5)6,0.09760000000000013
mp-27311,LaCO,3.0016000000000007
mp-1096668,AlAgAu2,0.02519999999999989
mp-763344,LiV3O8,1.1302
mp-867794,Sc2CuIr,0.0
mp-775589,Ti3CuSn2(PO4)6,0.0
mp-754846,Ce2Nd2O7,2.0728
mp-1097634,NbFeTc2,0.0
mp-1006591,Mg(InSe2)2,1.541
mp-1075413,Mg5Si6,0.0
mp-541323,Sr2NdGaCu2O7,0.0
mp-685977,Gd5AgSe8,0.9083
mp-781743,Li3V5Cr2O12,0.41300000000000026
mp-640584,BaMo2P3O14,1.8055
mp-600053,SiO2,5.522
mp-770250,Li24Mn7Cr5O36,1.1001999999999998
mvc-2597,Ba2TlBi2O7,0.0
mp-1094645,MgGa3,0.0
mp-862689,Cs3Rb,0.0
mvc-5059,Ca3Si4(MoO7)2,2.6183000000000005
mp-1004377,HfB6,0.0
mp-771794,Li4Mn(TeO4)3,0.0
mp-760579,Ti3Cu3(TeO8)2,0.0
mp-1037352,Mg30VZnO32,2.1779
mp-541626,K3Nb3Ge2O13,2.3239
mp-631431,InHgW2,0.0
mp-14817,PrP5O14,5.3923
mp-1035572,CsLaMg14O16,0.0
mp-6753,Ca5Si2C2O13,4.790699999999998
mp-689962,LiCr(PO3)3,2.9745000000000004
mp-1038837,CeMg3,0.001600000000000712
mp-861871,SeI2,0.8854
mp-1073529,MgSi2,0.0
mp-18033,Na2Cu(Si2O5)2,0.9778000000000002
mp-767199,LiMn3OF5,1.8939
mp-767104,Li2Cr(CO3)2,2.4177
mp-649516,Te6Mo(OF5)6,2.7248
mp-2649,Zr5Sb3,0.0
mp-10999,LuGeIr,0.0
mp-1028082,BaMg14Mn,0.0
mp-867272,LiAlCu2,0.0
mp-565740,HoCu(MoO4)2,2.0583
mp-1038513,Mg30CrBO32,1.1100000000000003
mp-8298,Sr4P2O,1.2134
mp-1020633,RbMgBO3,4.3738
mp-571085,Ga2BiSe4,1.8901
mp-771248,Na2Ge2O5,2.9897
mp-565839,LaWClO4,3.1704
mp-27866,MoS2Cl3,1.4364
mp-1907,TiTe2,0.0
mp-1025257,TmGa5Co,0.0
mp-541280,BaLaGaO4,4.352399999999999
mp-10767,CsK2Yb(PO4)2,0.0
mp-763946,NaFePO4,3.7034
mp-1074283,Mg4Si3,0.0
mp-765828,LiMnFeO4,0.6196999999999999
mp-1094753,MgSn,0.0
mp-763484,Fe4OF7,1.7312
mvc-937,CaV3(P2O7)2,2.6225
mp-758302,LiAgF2,1.4668
mp-775613,NaMnPCO7,0.9207
mp-720901,Na3H6S2NO10,3.7635
mp-868360,Co3TeO8,0.0
mp-27122,LiSn2(PO4)3,3.5637
mp-1078539,Sr2MgMoO6,2.3452
mp-850995,Na4V2C4SO16,1.5699
mvc-15430,CaMn2O4,1.7035999999999998
mp-1024940,DyInCo4,0.0
mp-773408,Na5LiMn2P2(CO7)2,3.3387
mp-4856,HoGa5Co,0.0
mp-706531,Ge3Ru2,0.3529
mp-1097331,Li2CaGa,0.0
mp-1031822,Mg6NiSnO8,0.0
mp-4991,Tb2Sn2O7,2.9314
mp-1097458,YCuAu2,0.16749999999999998
mvc-14927,Ca(NiO2)2,0.0
mp-1038792,MgBi2,0.0
mvc-16061,MgV4O10,0.9716999999999998
mp-542675,Na(RhO2)2,0.017999999999999794
mp-1040233,KMg30BiO32,3.4522000000000004
mp-614918,YClO,2.1238
mp-762012,LiNiPO4,3.2464000000000004
mp-1037023,BaMg30CoO32,2.0597000000000003
mp-1099039,CaMg14NiO16,3.43
mp-684978,Sc29S42,0.0
mp-16258,CaCdGe,0.0032999999999998586
mp-763591,NiSn(PO4)2,2.7113000000000005
mp-768486,Sb2(SO4)3,3.6732
mvc-7427,MgCuBiO5,0.04420000000000002
mp-6211,RbLiSO4,5.2348
mp-1036731,HfMg30VO32,0.16600000000000034
mp-561125,Ba5P3BrO12,4.9636999999999984
mp-12192,La2Ti2O7,2.8595
mp-1097646,BeAlPt2,0.0
mp-762071,Li4Co3Ni3(TeO8)2,0.0
mp-6676,Sr2HoRuO6,0.0
mp-1027899,Mg14ZnSb,0.0
mp-416,Cr3Os,0.030199999999999783
mp-777027,Na6Ni2C4SO16,3.5319000000000003
mp-778074,Mn7Cr(PO4)12,0.0
mp-566053,Na2VS2O9,2.6796
mp-776354,Mn3SbO8,0.0
mvc-13220,CaV2P2O9,1.5080000000000005
mp-580327,Gd3(AlNi3)2,0.0
mp-772526,Li6Mn(BO3)3,1.2196
mp-971985,TbAlCu2,0.0
mp-975298,RbNa3,0.0
mp-680329,K3As7,1.4029000000000005
mp-765930,Li4SbTe2WO12,0.0
mp-752483,LiBiF5,0.0
mp-862850,KPAuSe3,1.0152
mp-23731,CuSi(HO2)2,0.2538
mp-532413,Li5B7S13,3.5527999999999995
mp-22238,TbSnPt,0.0
mp-632403,CdCl2,2.9972
mp-14172,SrSi2,0.0
mp-685155,ZrCl3,0.0
mvc-16659,Ca(TiS2)2,0.0
mp-12341,CsPrZnTe3,1.3641
mp-762188,Li2VP3O10,2.1159
mvc-1660,Ca(BiO3)2,0.4501
mp-862719,LiY2Os,0.0
mp-1035037,Mg14CoCO16,0.5907
mp-771763,Mg2Mn3O8,1.1172000000000002
mp-546625,HoBi2BrO4,1.3664999999999994
mp-20112,Ni3Sn,0.0
mp-771053,Mn5Cr3O16,0.4473999999999999
mp-28745,Nb2Te6I,0.6360999999999999
mp-1094063,Sr12Al14O33,1.5837999999999997
mp-680477,Al2RhC4Cl7O4,2.0207
mp-4482,NaSbO3,2.7012
mp-28072,La2Be2O5,3.9238
mp-777733,Li5Mn2Fe17O32,1.0448
mp-1028979,TeMoWSe3,0.0
mp-560239,K3Ti3(PO4)5,2.5785
mp-1023158,CaMg6Cr,0.0
mp-643794,HSO3F,3.0957
mp-631377,Re2PtRh,0.0
mp-1096687,NaPbAu2,0.06230000000000002
mvc-3612,Mg3Si3(AgO6)2,0.25669999999999993
mp-686015,Ca3(PO4)2,2.773
mp-752615,Li4(CuO2)3,0.0
mp-999337,NiHO2,0.0
mp-778241,Li2V3F8,2.2001
mp-2450,CaSn,0.0
mp-770623,Li4Ti2Mn3V3O16,0.44769999999999976
mp-757127,LiSi3BiO8,3.0538000000000003
mp-31492,CeGaNi,0.0
mp-1095592,TiCr2,0.0
mp-10615,BaLiP,0.6981999999999999
mp-1096889,CrN2,0.21879999999999988
mvc-253,Mg(MoO2)4,0.14590000000000014
mp-21015,HoCuSb2,0.0
mp-647833,RbNi2F6,0.0
mp-32466,VP2O7,1.4177
mp-761408,Li3Cr(PO4)2,2.6907
mp-570216,Sm(AsPd)2,0.0
mp-861603,Li2SiNiO4,3.3466
mp-704540,LiMo2(PO4)3,1.6061000000000003
mp-766847,WOF3,0.0
mp-999289,PrTlSe2,1.9505
mp-554001,Nd3S3N,1.5240999999999998
mp-977543,ZrInRh2,0.0
mp-771582,Fe(SO4)2,0.01859999999999995
mp-37741,Ba(LaSe2)2,1.8808
mp-763995,Li5CoO3F,0.16860000000000008
mp-32062,Li3Mo3(PO4)4,3.374000000000001
mp-862877,PmAg2Sn,0.0
mp-510113,Mn5(NiBi2)2,0.0
mp-556865,NaBe2BO3F2,5.9419
mp-1079468,ZnCu2SnTe4,0.0
mp-1078723,CeTlSe2,0.0
mp-850901,Fe3(O2F)2,0.003900000000000015
mp-16687,Ti5Sb2Rh,0.0
mp-777201,LiNiBO3,2.3795
mp-715486,CrO2,0.0
mp-1025270,GaPPt5,0.0
mp-772005,Li3V4NiO12,0.07750000000000012
mp-672671,PbI2,2.3308
mp-1077787,PbCI3N,0.0
mp-7609,SbOF,3.3084
mvc-157,Mg(WO2)4,0.8003999999999998
mp-565920,KMnF3,2.6741
mp-684042,Li3Bi2(PO4)3,4.0258
mp-1099625,Sm2Ni2O5,0.6478000000000002
mp-33104,Sm2O,0.0
mp-1096133,MgVRu2,0.14080000000000004
mp-1059879,CsN,0.0
mp-764274,VOF3,3.4012
mp-779217,Tb2Zr2O7,2.5376
mp-684709,K3B17,0.0
mp-28155,LaNb5O14,2.1536
mp-17621,CsReO4,4.2983
mvc-14054,CaTi2S5,1.2148000000000003
mp-10301,Sr2ScIrO6,0.0
mvc-10363,WO2,1.6055
mp-1080233,CsSrCl3,4.9656
mp-704305,V5O9,0.5390999999999999
mp-974758,Rb3Tl,0.0
mp-2351,TmPt3,0.0
mp-866059,GdMgRh2,0.0
mvc-12221,Fe3(P2O7)2,0.8609
mp-551101,HoBi2IO4,1.3910999999999998
mp-11204,Tm6FeSb2,0.0
mp-13816,Cs2NaErF6,6.863899999999999
mvc-2609,MgCrO2,0.7578999999999998
mp-31465,Ho5Bi3,0.0
mp-558572,Na2UF6,0.32109999999999994
mp-1037342,Mg30TiZnO32,0.2179000000000002
mp-999391,NbFe3,0.0
mp-17455,K7Ta(SO4)6,3.6873
mp-1709,U2Ti,0.0
mp-585254,Co2P5O16,0.0
mp-974627,K3Tl,0.0
mp-770886,Li3FeO3,1.9602
mp-23068,NdBrO,4.4819
mp-998917,K2O2,2.0834
mp-1020613,Rb5GaO4,1.8405
mp-1026699,CsMg14Si,0.0
mp-775654,Li4V3Sn3(TeO8)2,0.8990999999999998
mp-979416,Ta2Be2O5,0.0
mp-1095782,MnAsRu2,0.13929999999999998
mp-762794,LiMn(PO3)3,4.3219
mp-771150,Na6Cu2P(CO4)4,0.0
mp-1028300,HfMg14V,0.0
mp-1095963,Hf2MnZn,0.2907000000000002
mp-1097486,SrLi2Ca,0.5152999999999999
mp-4437,NdTe2Se,0.0
mp-12837,Er3FeSi3,0.0
mp-680731,Tl2Te3,0.4447999999999999
mp-1021210,CeMg6W,0.0
mp-601241,Na3YH12(CO5)3,4.5907
mp-1087532,CsLuS2,2.3567000000000005
mp-672676,U(WC)4,0.0
mp-767938,LiFeSiO4,2.8707000000000003
mp-1038455,Mg30BiBO32,2.2858
mp-707762,K2CaH8(N3O)4,4.1829
mp-765852,Cr(CoO3)2,0.9241
mp-1039164,MgCd,0.0
mp-650015,P6N7Cl9,3.8764
mp-1021204,NaLaMg6,0.0
mp-27771,Nb3Br8,0.060999999999999936
mp-772625,Na2SnBAsO7,1.1457999999999997
mp-31058,Er3InN,0.0
mp-31420,CeAgSn,0.0021999999999993136
mp-780320,LiMn3(BO3)3,0.5244
mvc-16547,Ca2FeMoO6,1.1193000000000004
mp-505042,Cu(BiO2)2,0.0
mp-861477,LiMnPO4,3.0874
mp-766663,Li4V3P8O29,1.0567
mp-579677,ZnB3Ir4,0.0
mp-630927,Pb4SeBr6,2.3452
mp-556357,Ni18Bi3AsS16,0.0
mp-767404,Gd2As4O11,2.484
mp-1079205,Tb2NiAs2,0.0
mp-2463,LuFe2,0.02039999999999953
mp-758094,Ce6Y2O15,1.8196999999999992
mp-849455,LiMn4(PO4)3,3.0575
mp-28414,Nd2GeO5,2.5558
mp-765808,LiNi2OF3,2.4959
mp-629044,MnSb2F12,3.3306
mp-13903,ZnSnF6,3.7147
mp-776239,Zr2N2O,1.5627999999999995
mp-7433,NaCuSe,0.051200000000000134
mp-768419,La(ClO4)3,3.9271
mp-29570,Ca2Si3Ag,0.0
mp-720469,H6Os5Pt2(CO)17,1.7221000000000002
mp-863708,KPuO3,0.0
mp-778766,Li2Fe3WO8,0.0
mp-704942,Li2Cr(PO3)5,2.1007
mp-697108,K3HRhC5N5O,3.8356
mp-560121,H5CNO3,5.1511
mp-15362,Li3Nd2(BO3)3,4.7523
mp-568752,Ca3SiBr2,0.0
mp-24905,CrClO,1.8896
mp-1097244,TiMn2Cr,0.0
mp-1026832,KMg14Cr,0.0
mp-762174,Ti3Fe2Co(PO4)6,0.05489999999999995
mp-764278,Li3MnF5,4.7264
mp-776066,V2P2O7,2.9811
mp-23546,Na2UI6,0.2262
mp-763153,Li2Ti3Co(PO4)6,0.0
mp-5766,CeCuS2,0.0
mp-32520,V(PO3)4,0.0
mp-28130,Nb(PS4)2,1.4379999999999995
mp-569421,Hg9P5I6,1.3431000000000002
mp-28066,ThBrN,2.6393
mp-1096050,MgAlPt2,0.0
mp-4604,Li7VN4,3.011
mp-777229,V4O7F5,1.4348
mp-1094729,MgGa,0.0
mp-23843,LiHSeO3,4.3019
mp-35751,Zn(CN)2,5.7795
mp-780649,V2O3F,0.7259000000000002
mp-557917,SbI(OF4)2,2.2627
mp-850174,Li4Cu2Ni5O12,0.10309999999999996
mp-765519,Li5(CoO2)4,0.6114999999999999
mp-779943,VOF3,3.031
mp-615833,Cs2SbCl6,0.08889999999999998
mp-1076751,K4Na4NbW7O24,0.0
mp-565600,Mn3Si(O2F)2,2.7393
mp-540787,K3V5O14,2.3325
mp-767196,Li3Mn5OF11,2.2349
mp-766540,Li4TiS4,2.3658
mp-1035217,Mg14ZnSnO16,0.06759999999999877
mp-772118,NaCuCSO7,0.4258000000000001
mp-863757,K2SbAu,1.0023000000000002
mp-1777,Li15Ge4,0.0
mp-723034,Na2Mn(H2N)4,0.0
mp-764483,LiFe2(BO3)2,1.5273
mp-21039,PbS,0.0
mp-573568,K2TcI6,0.20120000000000005
mp-1036714,HfMg30VO32,0.0
mp-3893,Tb(CoB)2,0.0
mp-743953,Ca2La8Ti5Cr5O30,0.0
mp-979933,Tm3Si,0.0
mp-585388,Mn4(PO4)3,0.1592
mp-757603,Na13Ti24O54,0.0
mp-682548,Cs5Te3H4NCl18,2.6576
mp-771532,Li(NiO2)2,0.4230999999999998
mp-13137,Hf2CS,0.0
mp-571383,PdSe,0.5940999999999996
mp-770153,Li3Fe2P2(CO7)2,0.0
mp-862717,LiAlAu2,0.0
mp-1252,ZrBe2,0.0
mp-1027862,Mg14FeSb,0.0
mp-1077243,K2Zr,0.0
mp-16482,TiAlAu2,0.0
mp-22216,In2S3,0.8348999999999998
mp-767998,Mn9CdO10,0.0
mp-626791,VHO2,1.4847
mp-567406,SmZn5,0.0
mp-1022808,Ba2NbFeO6,1.3500000000000003