mpid,formula,gap pbe
mp-1074669,Mg2Si,0.0
mp-558946,BaSbSe2F,1.3342999999999998
mp-18879,V2ZnO4,1.6539999999999997
mp-1099918,NaWO3,0.0
mp-667294,Ca5(PPd)6,0.0
mp-1026838,KMg14Bi,0.0
mvc-15643,WO3,1.8967
mp-640341,Mo3S7Cl4,1.6678
mp-1035407,RbLiMg14O15,1.9353
mp-18961,ScCrO3,2.5386
mp-998927,TlCrSe2,0.0
mp-21691,La5Pb4,0.02200000000000024
mp-1079699,PrAlNi,0.0
mvc-9122,CaMn2(PO5)2,0.0
mp-762702,Li3Ti2(FeO4)2,1.0143
mp-772864,Rb2Ge2O5,2.7725
mp-11356,La3Co2Sn7,0.0
mp-1080638,CeSe2,0.9861999999999996
mp-19766,CeSnPd,0.0008999999999996787
mvc-5367,MgTiP2O7,0.22970000000000024
mp-555131,CsCO2,4.1438
mp-1079692,Y(CO2)3,0.09839999999999982
mp-978885,SnTe3,0.0
mp-1029899,Ca5(OsN3)2,0.0
mvc-9593,Zn(CuO2)2,0.0
mp-705159,K2Co2(MoO4)3,2.1587
mp-1875,TeF6,4.3688
mp-1061865,TeN2,0.0
mp-650029,Fe3WC14(SO7)2,1.7942999999999998
mp-862735,SmAg2Sn,0.0
mp-768190,Li3MgPCO7,5.3898
mp-556841,LaTmS3,0.8731
mp-555562,LiIO3,3.5575
mp-850136,LiFeOF2,2.4912
mp-567524,K3Ga3As4,0.8722000000000001
mp-735910,K3Li5Al6Si10(O5F)6,0.0
mp-28549,Li8SiO6,4.4497
mp-608,TiCo3,0.0
mp-1030574,Te4MoW3(SeS)2,0.0
mp-568430,BaRh2,0.0
mvc-5342,MgV2O4,1.5459000000000005
mp-1952,Ba7Al13,0.0
mp-864758,Na3In,0.0
mp-8122,ErCuSi,0.0
mp-690511,K10Co4O9,1.435
mp-559283,TiSO5,2.1002
mp-14307,Mg(ScS2)2,1.5651000000000002
mp-554225,CsFeF4,2.8735
mp-4725,Nd(GePd)2,0.0
mp-1076981,Mn2As,0.0
mp-571512,TePt,0.0
mp-800,TmB2,0.0
mp-604518,UNiH14O9F4,2.3034
mp-696969,Sr(H2N)2,2.3795
mvc-4360,Mg2TaVO6,0.13039999999999985
mp-13061,Y2O3,4.1927
mp-752473,SmTh4O10,0.0
mp-21428,Th2In,0.0
mp-1941,GaNi,0.0
mp-676073,Cr2CoSe4,0.0
mp-24984,SrFe3(P2O7)2,4.0312
mp-505821,NaV2O5,1.3254
mp-1175,SrS3,1.0703
mp-1039661,RbMg30CrO32,3.428
mp-23514,BiSI,1.8669
mp-780243,Li5Ti2Cu3O10,0.1917
mp-608081,Rb3Pb4Au,0.15589999999999993
mp-542723,CeMnSbO,0.0004999999999997229
mp-569167,Nb4N3,0.0
mp-15784,KGdS2,1.7388
mp-985282,Ag3Ge,0.0
mp-764265,Li10Mn3V5O16,0.2265999999999999
mp-1094351,MgTi2,0.0
mp-615152,MnF2,4.0932
mp-582011,CeCl3,0.0
mvc-8692,CaSb2(PO5)2,0.0
mp-774398,Mn6O7F5,0.0
mp-776039,NaMnBO3,2.5243
mp-616597,ReHgO4,2.6922
mp-761630,Li3Cr2(PO4)3,2.096
mp-777076,Li2TiNiO4,1.6432999999999995
mp-1093844,CrGaRh2,0.0
mp-1096387,ScTiRh2,0.0
mp-973444,K3V,0.0
mp-1033406,BaMg6BiO8,0.0
mp-19122,BaSr2Mn2(Si2O7)2,1.6395999999999995
mp-682067,KCaNb2O6F,2.7607
mp-573069,Ba2CaTl2(CuO4)2,0.0
mp-560899,CaB3H5O8,5.5945
mp-22255,RbInTe2,1.1089000000000002
mp-344,BN,3.5766
mp-14968,Dy2Ru2O7,0.0
mp-20237,CoNiSn,0.005599999999999382
mp-646320,Li2FeSiO4,3.1297999999999995
mvc-1114,BaYTi4O7,0.0
mp-4302,Nd(NiGe)2,0.0
mp-1098566,Mg30NbCdO32,0.10610000000000053
mp-19722,MnCu2SnS4,0.0
mp-707645,Na2Ca3B5H2S2ClO18,5.481
mp-21684,Ce5Cu19P12,0.003099999999999881
mp-997041,NaCuO2,0.44030000000000014
mp-558879,OsOF4,0.5956999999999999
mp-1028035,LaYMg14,0.0
mvc-9995,Zn(MoO2)2,0.6688999999999998
mp-8387,Tl6TeO6,1.5632999999999997
mp-30148,BC2N,2.8923000000000005
mp-1033748,Mg14CdCO16,0.6462000000000003
mp-2940,LuPO4,5.9556
mp-1062510,NdPd2,0.0
mp-1077185,MgTiH4,0.0
mp-767347,Li3FePCO7,4.2418
mp-505229,Al3FeSi2,0.0
mp-555679,Na2UF6,0.3066
mp-764311,Li5Cr3NiO8,2.9590000000000005
mp-12961,YAlPd,0.0
mp-862930,Li2PmIn,0.0
mp-779544,Ba4Y2O7,2.6786
mp-1094513,MgSb3,0.0
mp-1027888,Mg14ZnCd,0.0
mp-753508,LiCuS,0.7014999999999998
mp-1019357,ThAsSe,0.0
mp-764070,Li3V3P8O29,0.7778999999999999
mp-615754,RbCuPdF5,0.0
mp-530546,SiO2,5.5612
mvc-14086,Ca5(MnN3)2,0.0
mvc-11640,Y(FeO2)2,0.03869999999999997
mp-1078577,DyNiGe2,0.0
mp-1040167,KMg30SbO32,2.798899999999999
mp-32507,LiV(PO3)4,2.3055000000000003
mvc-14025,Zn2Co3O8,0.0
mp-683949,AlP3(NCl3)3,3.6551
mp-1075956,K2Mo2O5,0.4925000000000002
mp-611219,Hg,1.7473999999999998
mp-998322,CsInF3,0.0
mp-570869,LiNb3InCl9,0.9529999999999998
mp-24337,MgH2Cl2O,5.370699999999999
mp-556812,SiO2,4.5145
mvc-4860,Zn3Si4(NiO7)2,0.5771999999999999
mp-772942,Cu3(P2O7)2,0.0
mp-1093576,Y2CdIn,0.0
mp-18,Tb,0.0
mp-761262,LiCuF3,0.35850000000000004
mp-1096253,Li2ZnCd,0.6681999999999999
mvc-12903,Pr(CoO3)2,0.0
mp-861872,Ac2HgGe,0.0
mp-770501,Na6SiNi2(CO4)4,0.0
mp-6532,CaAl2(SiO4)2,4.945
mvc-9996,MgV2O4,1.4609000000000003
mp-658046,La8Al4I7,0.0
mp-779690,Hg(TeO3)2,1.9152
mp-557,TeO2,2.7971000000000004
mp-32309,Sr4Re2NiO12,1.866
mp-1079248,K3NaH4,2.2261
mp-5178,V2CuS4,0.0
mp-625894,Ba(H2O3)2,0.2549
mp-774229,Mn2InO5,1.0177000000000005
mvc-9670,PrZn(NiO3)2,0.0
mp-782700,TiMnV4O12,0.6605999999999999
mp-18330,Sr3ZnRhO6,0.0
mp-542069,Cs8Ta6O19,3.4757
mp-769935,CuHCO4,0.3433999999999999
mp-689947,Li2Co(PO3)4,2.8595
mp-1080264,CeSe2,0.3249
mp-754796,NaTmO2,4.0571
mp-1099320,LaMg6Bi,0.0
mp-18068,Ag2TeO3,1.6253000000000002
mp-23712,MgH2,1.9528
mp-984107,K3IO5,1.2569
mp-31779,Li3Fe2(PO4)3,1.5141
mvc-3437,Al2Fe2O7,1.0990000000000002
mp-3531,Ca2P2O7,5.4165
mp-559777,Na5Ca2Al(PO4)4,4.6496
mp-1025161,InPPd5,0.0
mp-997523,K(WO3)3,0.0
mp-21548,Er(SiNi5)2,0.0
mvc-9153,ZnCr4O8,0.0
mp-561214,SbH3CSCl6O,2.0032
mp-13994,Ti3NiS6,0.0
mp-569385,DyAl2Ni,0.0
mp-23998,ZnH12N4(ClO4)2,4.3595000000000015
mp-705637,NiPO4,1.3737
mp-1070408,Gd(SiIr)2,0.0
mp-754079,GdAsO4,3.0349000000000004
mp-775263,Li6CoNi9O20,0.0
mp-684749,Zr3S4,0.0
mp-3858,NaTaO3,2.6172000000000004
mp-1072856,PrZn2,0.0
mp-568620,CsFeI4,0.6385000000000001
mp-1064814,KC,0.5863
mp-11006,BaPS3,3.1048000000000004
mp-570172,HgIBr,2.3502
mp-763937,VO2F,1.568
mp-1094481,Mg4Ti3,0.0
mp-867792,ReIr3,0.0
mp-646059,C13Cl3,2.1015
mp-754345,LiTaO3,2.3884
mp-754505,SrTaNO2,0.8129
mp-1078107,CaNi5H,0.0
mp-705372,LiCo(PO3)5,0.014900000000000024
mp-1021305,LiMg6Mo,0.0
mp-777944,Li3Mn4(BO3)4,0.2810000000000001
mp-761986,Li5La3Nb2O12,3.5219
mp-977580,MgSc2Al,0.0
mp-1094159,Li3Mg,0.0
mp-1078750,NaCaH3,2.1679
mp-22857,CrCl2,0.7548999999999997
mp-581476,ZnS,2.0243
mvc-5801,MgWO3,1.1672000000000002
mp-1022543,Mg6ZrSn,0.0
mp-530081,Mo15N16,0.0
mp-776789,Li5Mn6(BO3)6,0.2338999999999997
mp-756374,SrPt3O4,0.0
mp-774121,LiFe2O2F3,1.7478000000000002
mvc-12764,Ca3Fe2(MoO6)2,1.7666999999999995
mp-1028155,CaMg14Mn,0.0
mp-961666,MnNbAs,0.0
mvc-429,Sr2GaCo2O7,0.0
mp-31310,Zr3(Mn2Si3)2,0.0
mp-569611,CdI2,2.38
mp-1040029,RbLaMg30O32,3.8241000000000014
mp-1016301,Mg7Ni,0.0
mp-1078774,PuGaRh,0.0
mp-672336,Li5Ca7Sn11,0.0
mp-23180,In5Bi3,0.0
mp-1094194,MgZn5,0.0
mp-569330,Ce4C4Br3,0.0
mp-1013795,Li3Ge3(MoO6)2,0.0
mp-30950,Sr3GeO,0.3363999999999998
mp-1079294,TmCuSb2,0.0
mvc-7648,MgV2CoO7,1.9566
mp-16373,UGe2,0.0
mp-733838,PH5N2O3,2.3806000000000003
mp-1074287,Mg4Si3,0.0
mp-18918,ZnWO4,3.2609000000000004
mp-642318,Ba2Tl(NO2)5,0.7217999999999999
mp-708965,H8C3(NO)4,3.3614
mp-762451,Li5Ni9O16,0.0
mp-29288,TlGeI3,1.92
mp-29051,WS9Cl4,1.2564
mp-1072130,HoCo2,0.0
mp-17273,Ba(HoTe2)2,0.7850000000000001
mp-763069,Li2Fe3Co5O16,0.0
mp-1026600,CsMg14Mo,0.0
mp-1098795,Mg30ZnCoO32,0.0
mp-761090,Na3BiO3,2.7882
mp-1093753,MgCdHg2,1.3786
mp-33975,CuAsSe2,0.30600000000000005
mp-1032698,Mg6MnBO8,0.0
mp-771797,MnCoO4,1.2788
mp-567873,RbSmGeSe4,1.857
mp-851043,LiMn2(BO3)2,0.0
mp-973869,LaCdO3,0.0
mp-7250,Nb6Co7,0.008100000000000662
mp-561190,NaAu(SO4)2,1.7422
mp-763816,Fe3(OF2)2,1.3659
mp-866196,Li2PrIn,0.0
mp-780180,Li3Mn4(BO3)4,0.24560000000000004
mp-1025577,W3(SeS2)2,0.7054
mp-652049,SrFeF5,3.7292
mp-22744,Ta11(NiSe4)2,0.0
mp-773501,Li3MnV2O6,0.3508
mvc-16800,Al(NiO2)2,0.14280000000000026
mp-541962,KGd(WO4)2,3.2569999999999997
mp-866025,CsCr5Te8,0.0
mp-19737,LaMnSi,0.0
mp-556297,FeS3(NCl2)2,1.2118
mp-1008912,AgC,0.0
mp-685944,Eu2Zr2O7,0.0
mp-31187,TiAlFe2,0.003900000000000681
mp-2815,MoS2,1.4606
mp-691154,Co(IO3)2,2.5683
mp-781696,Fe2O3F,0.0
mvc-11996,Zn3Bi2(PO6)2,0.0
mp-776064,Li2VPO4F,2.6846
mp-1022638,NaYMg6,0.0
mvc-6912,Mg(MoO2)2,1.2385000000000002
mp-19061,LiFe(SiO3)2,2.7524
mp-16331,ErS2,0.0
mp-868385,Li6Mn5CoO12,0.7322000000000002
mp-1078085,Cs2PdCl4,1.7557
mp-1256,HoGa2,0.0
mp-853248,LiVCrO4,1.2521999999999998
mp-1026400,HfMg14Ti,0.0
mp-3633,Er(Al2Fe)4,0.014300000000000425
mvc-8671,ZnFe(GeO3)2,1.089
mp-1075385,Mg5Si6,0.0
mp-28424,K4P3,0.0
mp-27944,TlAgSe2,0.0
mp-28255,LaHO,2.4324000000000003
mp-761465,Li2V(SiO3)3,2.1059
mp-32363,NiP2O7,0.004600000000000007
mp-3491,NbSbO4,2.4311000000000003
mp-25095,NiSeO3,3.1454
mvc-4845,W2O5,0.3114999999999997
mp-783902,Dy2V2O7,0.4744000000000002
mp-1030512,TeMoWSeS2,0.0
mp-22637,HfNbP,0.0
mvc-4397,CaSb2O5,0.0
mp-761678,Ti13(Fe5O14)3,1.5149999999999997
mp-1078783,La2VReO6,0.16690000000000005
mp-978910,TbYRh2,0.0
mp-764321,Li4Co3Ni3(WO8)2,0.0019000000000000128
mp-776731,Na3Li3Fe2P2(CO7)2,3.992
mp-649619,As3Pb5ClO9,2.0202
mvc-3885,Mg3Si3(MoO6)2,3.2979999999999987
mp-866172,HoMg3,0.0
mp-978274,MgCd,0.0
mp-570722,NbI3,0.0
mp-865425,ZnPd3,0.0
mp-763446,MnFeCo(PO4)3,0.5024
mp-555953,Na2Cu2Si4H4O13,0.1837
mp-771736,Cd(CoO2)2,1.8158
mp-555022,LuSeO3F,4.2845
mp-752989,Ti8O13,0.1144999999999996
mp-27161,ZnI2,2.9076000000000004
mp-540405,LiFePO4,3.942
mp-540611,RbNd(PO3)4,5.4518999999999975
mp-776621,LiVF4,2.0836
mp-760415,Li3SbS4,2.0975
mvc-10463,MgMn2(CuO4)2,0.05160000000000009
mp-767562,Na2LuPCO7,4.5575
mp-1023302,Mg6AlCr,0.0
mp-29231,Mo3S3Br,0.08279999999999976
mp-735824,KLi2AlSi4(O5F)2,0.9792999999999998
mp-541226,CsBrF6,4.0158
mp-3654,RbCaF3,6.3973999999999975
mp-768049,Na3Ni2P2(CO7)2,0.0
mvc-9206,MgV3O7,2.3876
mp-769970,ScFeO3,1.0123000000000002
mp-30059,Tl2(SbO3)3,0.0
mp-504565,CaFe5O7,1.2312
mp-1079148,LuSnRh,0.0
mp-1026863,Mg14CuSi,0.0
mp-867910,LaAgAu2,0.0
mp-770288,Li3B2SbO6,2.7077
mp-1098484,NaMg30BO31,2.5043
mp-505577,Dy3Ge5,0.0
mp-568259,TaSi2PH18C6(NCl3)2,3.1119
mp-1095469,TmAsPt,0.0
mp-31591,LiCoPO4,2.7675
mp-20229,Sm3InC,0.0
mp-32967,Zr7Sb4,0.0
mp-767822,MnFe3(PO4)4,1.2713
mp-604295,HgH16(Br3N2)2,2.0737
mp-680144,CdI2,2.3255
mp-1080489,HfGeRu,0.0
mp-1096879,BaHo2O4,1.0061000000000002
mp-1097796,Cr3N2,0.0
mp-707744,K2TeH10(NO7)2,2.785
mp-705540,NaMn2Mo2H3O10,0.5825
mp-690531,La5Mn5O18,0.0
mp-705300,Cr(PO3)5,0.2176
mp-1100173,CsMg6Fe,0.0
mp-775319,Li2Mn3NiO8,0.7708999999999997
mp-2228,ErMg,0.0
mp-755026,La2Pt2O7,0.9644000000000004
mp-510534,CaCr2Cu3(SbO6)2,0.6993
mp-1028850,Te2MoW3(Se2S)2,0.0
mp-1819,SbO2,2.022
mvc-5749,CaV2O4,1.3217000000000003
mp-1039784,HfMg30SiO32,0.1598000000000006
mp-1093579,Mg2IrPd,0.0
mp-174,Tl5Te3,0.0
mp-768337,CuReO4,0.6761999999999997
mp-865380,Tm2PdPt,0.0
mp-20471,U4Si6Tc7,0.0
mp-557115,Cs2As2OF10,3.932
mp-4431,Ag3AsS3,1.1736
mp-698310,SnH2C4O3,0.2723
mp-1016928,MgSiO3,2.557100000000001
mp-763380,Li4Mn7O16,1.0474
mp-1030404,Te4Mo3W(SeS)2,0.10760000000000014
mp-705484,Na6Al4Fe(Si4O13)2,2.9633
mvc-8998,ZnFe2(PO5)2,0.0
mp-28509,Ta4SiTe4,0.028599999999999962
mp-16930,Na3GeTe3,1.3032
mp-697096,Na2H4Pt,2.1056
mp-1028651,Te4MoW3(SeS)2,0.0
mp-1099070,Mg14TiMnO16,0.0
mvc-7687,BaAlCoCuO5,0.0
mp-540734,Na14Mn2O9,0.8899000000000001
mp-771667,LiV2NiO6,0.0
mp-23930,H4CSN2,3.6175
mvc-6408,CaV2O4,0.0
mp-17272,NbCuO3,0.9479
mp-631465,YRhW2,0.0
mp-555056,SbS2NCl6,1.6653
mp-982869,PmYAl2,0.0
mp-762557,Li2FeSiO4,2.9464
mp-6763,K2Ti(Si2O5)3,3.2540000000000004
mvc-6766,Ca(SbO2)2,0.8428000000000004
mp-1097540,TlHg2Bi,0.0
mvc-8800,CaBiSbO5,2.555
mp-697255,KMg2As2H31O23,0.2705
mp-768329,LiFe2(PO4)2,1.4736000000000002
mp-541087,CuAs4(H5O8)2,0.8247
mp-705004,LiNi(PO3)5,0.0
mp-978285,Mg3Mn,0.0
mp-780484,Li5Mn2(PO4)3,3.8165
mp-626317,Ca(H8O5)2,3.4675
mvc-5132,MgTi2O4,0.0
mp-978771,Sm(BRu)2,0.0
mp-24336,MgH4(ClO)2,5.539
mp-699582,Na2AlFeF7,3.3639
mp-1093797,TiBe2Pd,0.0
mp-862965,PmTlAu2,0.0
mp-1094530,Sr5Mg,0.0
mp-778728,Li2MnVP2(HO5)2,0.4663
mp-11243,ErAu,0.0
mp-16747,LuAgPb,0.0
mp-1040468,Si3H,0.9505
mp-17532,Y3(Si3Os)4,0.0
mp-765798,Li2CoNiO4,0.0
mp-696941,K2H2RuO5,0.8350000000000001
mp-978547,SmLuIn2,0.0
mp-1077840,Mn(BiTe2)2,0.4754000000000005
mp-1080226,CsTlBr3,0.0
mp-504937,SbSe9Cl7,1.0831
mp-117,Sn,0.0
mp-16956,Na3Sc2(PO4)3,4.6575
mp-548691,Sr2ZnReO6,0.0
mp-1097253,ScCo2Ge,0.0
mp-13162,TbZnSn2,0.0
mvc-8680,TaPO5,3.2243
mp-761407,Li4Cr3Ni3(TeO8)2,0.0
mp-758554,Li2AgF5,0.7961999999999998
mp-17208,K2Li14Zr3O14,4.4456
mp-977392,Ho2MgIn,0.0
mp-779773,Na5GdO4,1.895
mp-696812,B3H7N,1.4863
mp-557304,Sr2SiCl2O3,5.1218
mp-610917,O2,1.3227
mp-1073702,MgSi,0.0
mp-762975,Li4V(CO3)4,1.2907
mp-568184,Lu(BRu)4,0.0
mp-761951,LiCoPO4,0.0618000000000003
mp-694541,FePO4,2.656
mp-984711,Cr3Cu,0.0
mp-556920,Tb9(SbO)5,0.0
mp-620364,CaSmCuClO3,0.0
mp-1033732,Mg14BSbO16,0.0
mp-1036333,Mg14MnCuO16,0.0486999999999993
mp-1096063,Be2CuOs,0.3089000000000004
mp-770907,Gd2W2O9,2.4647
mp-686905,TmMoO4F,3.7102
mp-741706,V2CuO6,0.2016
mp-1022997,Mg6TiMn,0.0
mp-23432,BaClF,5.4426
mp-777193,NaLiMn2Fe4(PO4)6,1.3958
mp-973225,Na2CrH2F8,1.8303
mp-553990,Ba4B2N4O,2.8031999999999995
mp-541953,Rb4Zr3Te16,1.0575
mp-1098344,Mg30SnBiO32,0.0
mp-570241,K6PdSe20,0.9912
mp-865117,NaErTl2,0.0
mp-676050,H8(NO2)3,1.0125
mp-774757,Na3PH12CO11,4.1942
mp-631408,KSi2Hg,0.0
mp-19345,ErMn2O5,1.2432
mp-570502,Cs2LiCr(CN)6,1.8904
mp-864925,NdMgZn2,0.0
mp-1095727,MnTc2As,0.0
mp-765704,Li4Fe3Cu2Sb3O16,0.0
mp-554235,La2Hf2O7,0.0
mp-1096857,CaCuS2,0.0
mp-780978,Fe4O3F5,1.2249
mp-760131,Li2Cu2F7,0.0
mp-675629,Pr(CoP)2,0.0
mp-780753,FeOF,1.7395999999999998
mp-1019604,Cs2B2S3O13,5.8455
mp-1007660,IrN,0.0
mp-760832,LiTi2O4,0.0
mp-568686,Er5BiAu2,0.0
mp-698626,Ti(FeO2)4,1.7145
mp-557237,K5In3(SiO3)7,3.4899000000000004
mvc-2663,Mg2Ta2CoO8,2.8262
mp-763683,LiFeP2O7,2.7387
mp-1095476,LaSnPd,0.0
mp-763041,Fe2O3F,0.0
mp-11533,ZrZnNi4,0.0
mp-19832,BaCoS2,0.0
mp-7100,LaOF,4.574999999999998
mp-1025682,Te4Mo(WSe)2,0.3641000000000001
mp-694947,Sr5La3Mn8(O2F)8,0.0
mp-763460,LiP4WO12,3.5985
mp-714930,V6O11,0.7398999999999996
mp-764029,Co6O5F7,0.3609
mp-1098704,CeSe2,0.4544000000000002
mp-771175,Li2MnBO4,0.9099
mp-677179,BaNaIn2(PO4)3,3.3426
mp-1028595,Te6MoW3Se2,0.005700000000000038
mvc-11131,Zn(CoS2)4,0.0
mp-1022981,LaMg6Mn,0.0
mp-1079218,Ho3Sn7,0.0
mp-720300,H4CSN2Cl,3.6188
mp-30890,Hg3SO6,0.5677999999999999
mp-16305,ScPRu,0.0
mp-685477,Tc6BiO18,0.0
mp-19124,Ca3Mn2O7,0.0
mp-1096473,TiMnIr2,0.09709999999999974
mp-978533,SiHg3,0.0
mvc-4142,Zn2NiSbO6,0.0
mp-778759,Ce(IO3)2,0.6031000000000004
mp-763151,LiMnCO4,1.0439999999999998
mp-1039262,CaZn3,0.0
mvc-6787,Zn2CuWO6,0.3500000000000001
mp-1079387,PrInNi,0.0
mp-9763,K2NbCuS4,1.9582
mp-25539,LiMnO2,0.0
mp-1094774,SrMg,0.0
mp-20877,NbCoB2,0.0
mp-1028240,Mg14AlCr,0.0
mp-777243,Li5Mn8(BO3)8,0.4400999999999997
mp-5578,LuB2Ru3,0.0
mp-17112,K3Ge4Au,0.8272999999999999
mp-867181,SmMgHg2,0.0
mp-27971,AcCl3,5.0859000000000005
mp-580541,Cs2NaSmCl6,5.0722000000000005
mp-558888,PS2N3Cl2(OF)2,4.8031000000000015
mp-11551,Tb2Pt,0.05770000000000052
mp-1038921,Mg5Bi,0.0
mp-640159,V2GaSn2,0.0
mp-21587,Mg6Ni16As7,0.0
mp-754711,Nb2Pb2O7,0.9375999999999998
mp-12016,Rb2SiS3,2.8229
mp-853234,Li2FeF4,2.6491
mp-32491,Li4V3O8,1.4558999999999995
mp-944,AlB2,0.0
mp-961650,AlVNi,0.0
mp-998901,ThC,0.0
mp-561008,Ca(PO3)2,5.5318000000000005
mvc-8032,Zn3Fe4(MoO4)6,1.2207
mp-5481,Na6CoS4,0.5025000000000004
mp-5444,Y3Ga5O12,3.3529000000000004
mp-1095848,ZnFeCo2,0.0
mp-14254,NdAlO3,3.0235999999999987
mp-674459,NaErF4,6.8659
mp-3271,Ti3AlC,0.0
mp-1036646,Mg14AlSnO16,0.010600000000000165
mp-961716,VSnPt,0.0
mp-21620,U2Si5Tc3,0.005100000000000549
mp-1080842,Ba2UPbO6,1.2277000000000005
mp-1022106,SrMg6Ni,0.0
mp-37498,Li5NCl2,2.1533999999999995
mp-763034,Fe4O7F,0.0
mp-676778,KBiF4,4.1944
mvc-13455,MoN2,0.0
mp-991717,LuFe2,0.0
mp-703527,H2CN2,4.8561
mp-567241,Pr3(AgSn)4,0.0
mp-999059,Ti2GaFe,0.0
mp-853217,Li9Mn7Cr12O48,0.2643000000000001
mp-1013716,Ba3BiAs,0.0
mp-775430,LiBi3(IO2)2,1.7552
mp-556785,RbTeF5,4.8746
mp-1016262,Mg7B,0.0
mp-973831,LiHoPd2,0.0
mvc-4629,V2Zn3(Si2O7)2,1.8698
mp-1040170,RbLiMg30O31,3.1504000000000003
mp-1076510,K5Na3Ta8O24,2.1513
mp-777362,LiFeF3,3.5106
mp-17389,Pr3SiAgSe7,1.4427000000000003
mp-1096036,ScGaAg2,0.0
mp-559987,LiAl(PO3)4,5.7441
mp-1034479,SrMg14NbO16,0.0
mp-775200,MnNi(PO4)2,0.2797000000000001
mp-1078775,Nd(CrB3)2,0.0
mp-505814,CsBa2Nb3O10,1.4077000000000002
mp-634062,RbCdH2I3O,2.49
mp-637251,Cs2SiSe4,1.9853
mp-752467,NbO2F,2.2067
mp-735535,NiPH6NO5,4.0452
mp-6287,Cu6Hg3(AsS3)4,0.2770999999999999
mp-7569,KAsF6,4.9041
mp-654372,K2CoCl4,0.8275000000000001
mp-775008,V3Cr(PO4)6,1.1002
mp-569207,K2OsNCl5,1.6187
mp-850992,Mn12O7F17,0.042100000000000026
mp-560255,NbPCl8O,2.3986
mp-775515,Li2Ni3SnO8,0.0
mp-27363,BaVSe3,0.0
mp-850065,Mn3O5F,0.0
mp-771075,Li8MnO6,0.7562999999999999
mp-1057416,ScC,0.0
mp-1024069,Na2Zn3S4,2.0222
mp-11385,YFe5,0.03649999999999931
mp-974371,Rh3Br,0.0
mp-555735,CaIrO3,0.0
mp-686677,Rb2PH3SeO8,3.94
mp-9848,PrP5,0.0
mp-7980,Ba3SrTa2O9,3.3693
mp-761254,Li5CuP3O11,0.5085999999999999
mp-1018663,CeS2,0.0
mp-1018819,NdTlCd,0.0
mp-780233,LiTi2O4,0.0
mp-28167,Th6CoBr15,0.6808999999999998
mp-555255,SbSNF5,2.2126
mp-1015567,CrN2,0.2706000000000001
mp-30873,Th5Sn3,0.0
mp-1039970,RbNaMg30O31,1.8075
mp-862713,BeGeRu2,0.0
mp-769558,LiMn(CO3)2,0.0
mp-559423,AgH8C5S2O2F3,3.2201
mp-865921,MgAlIr2,0.0
mp-13772,Li3Pr2(BO3)3,4.7496
mvc-122,Ba2Ca3Tl2(CoO3)4,0.0
mp-1032501,RbMg6MnO8,0.0
mp-777707,Li5Fe8(BO3)8,1.3798
mp-555098,SrSeO3,3.8781
mp-647680,MnSiO3,0.030199999999999783
mp-1079553,CeInRh,0.0
mp-21103,UPdSe3,0.007100000000000328
mp-704253,Mo2(PO4)3,1.2649
mp-541907,Fe3O4,0.7565
mp-550805,LuBi2ClO4,1.4617999999999998
mp-1027549,Mo3W(Se3S)2,0.7342
mp-582185,Cs12Nb(In2As3)3,0.8098999999999998
mp-16975,RbC10,0.7232000000000003
mp-744843,Mo2AsH18C6NO12,2.7111
mp-971775,ZnPb3,0.0
mp-540634,TaTl(GeO3)3,3.6578
mp-917370,MnPS3,0.15249999999999986
mp-1017220,RbMg6Mo,0.0
mp-1022591,Mg6ZnCr,0.0
mp-764486,Li3Fe4(BO3)4,1.6499
mp-27546,CaClF,5.6702
mp-637224,Pu2O3,0.0
mp-6402,Na2ZnGeO4,2.6212
mp-18495,SrLi(B3O5)3,5.6482
mp-29986,La2Al2I,0.0
mp-866078,NaNd(SO4)2,5.653
mp-1093549,BaHg2Sb,0.0
mp-10068,Ce2MnN3,0.0
mp-1063495,HgBrN,0.0
mp-6125,RbTi2(PO4)3,2.6058000000000003
mp-764149,Li5V2Cr2O8,0.7391999999999994
mp-1017288,NaMg6Ga,0.0
mp-768909,Sr(IO3)2,3.3968
mp-542798,Fe2CoAs2(H5O7)2,1.8888000000000005
mvc-6023,Zn3Cu3(AsO4)4,0.5132999999999996
mp-30406,Li2TlAu,0.0
mp-561619,CsLuS2,2.1704
mp-9463,ZrGeSb,0.0
mp-20735,Ce3Sn,0.0
mp-13380,HoZnRh,0.0
mp-148,Ge,0.0
mp-1078473,MnCO3,3.5444000000000004
mp-6419,CaSi2(BO4)2,5.6644000000000005
mp-1028576,Te8MoW3,0.5643000000000002
mp-42089,K4Gd2C3O9F4,2.7175
mp-558587,V5O9,0.7882999999999996
mp-3949,K7LiSi8,1.6927
mp-764329,Ti3Fe3(SbO8)2,0.0
mp-618929,Ni2GeP,0.0
mp-573204,Cs2KBiF6,4.9469
mp-694952,Ti5Fe11O24,1.1640000000000001
mp-17383,Ni2Ge,0.0
mvc-8397,ZnCr(GeO3)2,0.0
mp-675214,Rb2Bi3F11,3.8503
mp-765003,Li2MnF6,2.978
mp-849235,Fe6OF11,1.5156
mp-1095659,YbAlB4,0.0
mp-775944,Ba2Ti6N2O11,1.4450000000000005
mp-755691,Li2BiO2,0.0
mp-27394,CsSnCl3,2.9177
mp-28612,Na(LiSi2)3,0.12260000000000025
mp-1025144,CeGaGe,0.0
mp-1098414,LiMg30CrO32,3.634
mp-676437,CoPS3,0.0
mp-865483,Li2GdIn,0.0
mp-769079,ScGaO3,3.1715
mvc-16231,AlFeF5,4.2584
mp-23066,Pb5(SI3)2,1.8136
mvc-12570,Mg(NiO2)4,0.011800000000000031
mp-4158,Nd2CuO4,0.5556000000000001
mvc-591,AlAg(WO4)2,1.5724
mp-555262,Ba9Fe4S15,0.046099999999999586
mp-10231,LiMnSe2,0.0
mp-1009750,ScN,2.4152
mp-559198,Rb2Mo3O10,3.3707
mp-1077017,HfV2,0.0
mp-720985,CaEr15Si8Se11ClO28,2.5023
mp-754891,Zr5N5O2,0.0
mp-1080278,CeSe2,0.9885
mp-9764,Rb2NbAgSe4,1.8007
mp-1025558,CeNiSn2,0.0
mp-866943,Ca2SnS4,1.6421
mp-28776,K2UBr5,0.3639999999999999
mp-19146,CrPbO4,2.0487
mp-645514,Bi12Rh3Br2,0.0
mp-646579,V2Ni(PO5)2,2.8423000000000003
mp-1034112,Mg14TiCO16,0.07240000000000002
mp-7378,NaCdAs,0.8169999999999997
mp-10418,RbSbO2,2.3040000000000003
mp-3855,Na2BeF4,6.7369
mvc-1666,Ta2ZnO6,3.0212
mp-1037257,Mg30VCoO32,0.0
mp-20976,Eu(BIr)2,0.012600000000000831
mp-1097594,Ca2CdGa,0.0
mp-1093976,TiVFe2,0.0
mp-36843,Mn2NiO4,0.05600000000000005
mp-1073274,MgSi2,0.0
mp-779362,Li2MnFe(BO3)2,3.1151
mp-1026766,BaLaMg14,0.0
mp-571096,FeCl2,0.0
mp-12784,YbAlAu,0.0
mp-542327,Ce5Co19,0.005700000000000038
mp-861542,LiFeSiO4,1.9886
mp-18771,Sr2CoWO6,1.6378
mp-757825,Mg11Ti25O60,0.027099999999999902
mp-27636,Cs2SnI6,0.2884
mvc-4438,Mg3Co2(GeO4)3,2.4464999999999995
mp-30344,Li2InAg,0.0
mp-1035284,Mg14CrCuO16,0.2645
mp-773432,KMnPCO7,0.8876
mp-22037,Cu6PbO8,0.0
mp-1074947,Mg3Si4,0.0
mvc-9250,PrMg(CuO3)2,0.0
mp-1031971,Mg6CdCoO8,1.2733999999999996
mp-1008987,IrN,0.0
mvc-132,Ba2Mg3Tl2(NiO3)4,0.0
mp-757073,Ba4LiY2Cu5O14,0.0
mp-32124,Mo2PO8,0.0
mp-18411,Na3GeSe3,1.8881
mp-762914,LiNiPO4,3.5079