mpid,formula,gap pbe
mp-554160,K2CuP2O7,0.2617999999999999
mp-973199,Sb3Pb,0.0
mp-779852,LiMnB3(HO3)3,1.5952
mp-30569,Zr6Co23,0.008000000000000007
mp-1074668,Mg2Si,0.0
mp-1095433,TmGa4Ni,0.0
mvc-4409,Ca3Co2(GeO4)3,1.2221000000000002
mp-643898,CaP2H2O7,5.6995
mp-850972,Li4Mn5Cr2O12,0.5724999999999998
mp-1078915,Ba3CaO4,2.111
mp-560890,Li3ScF6,6.6719
mp-861991,PaMn2Al,0.0
mp-561027,AlPO4,5.5314
mp-713,KAs,0.6695
mp-1028264,BaMg14Al,0.0
mp-581833,RbN3,3.7529
mp-555639,Sm3OsO7,0.0
mp-998196,RbCuBr3,0.0
mp-532358,CaNb4O8,0.0
mp-779590,La3PO7,4.062099999999999
mp-13453,BePd3,0.0
mp-675132,K6InP3,0.7462000000000002
mp-1028089,BaMg14Zn,0.0
mp-557890,Er2Hf2O7,3.0001
mp-771609,LiTiV3O10,1.7757999999999998
mp-690552,SrLaMnMoO6,1.125
mp-1001284,CsYbS2,0.0
mp-31110,Sm3GaO6,3.6243
mp-775620,CoOF,0.0
mp-861630,Tc3Ru,0.0
mp-973910,PaAlCu2,0.0
mp-555829,Na2Pr4Cl9O2,0.6162999999999998
mp-20378,CaInAu,0.0
mp-19343,Co4B6O13,2.8100000000000005
mp-24312,Sr(H9O5)2,4.9945
mp-559493,TiPCl7O,2.6595
mp-721161,MgPH16NO10,4.8216
mp-771734,Li4Fe5Ni3O16,0.0
mp-1078408,LaNi2AsN,0.0
mp-769409,Y4Ga2O9,3.5485
mp-566764,Tl3(MoO3)10,0.0
mp-31013,U(BO3)2,2.2449
mp-761626,Li4Co5SbO12,0.31300000000000017
mp-1063020,MgNb2,0.0
mp-556456,ZrCoF6,0.0
mp-1023288,CsCaMg6,0.0
mp-1074587,Mg4Si3,0.0
mp-1703,YbZn,0.0
mp-25676,BaCoBP2HO9,2.9873000000000003
mvc-2923,Ba2Tl2Sn3O10,0.0
mp-540409,FeP2O7,0.0015000000000000011
mp-1079880,ErPdPb,0.0
mp-975652,PrTe2,0.0
mp-759985,Bi3O2F5,3.4435
mp-706611,LiBeH4NF4,6.5775
mp-773163,Li2Fe3SnO8,0.0
mp-556472,LiYF4,7.814999999999999
mp-557498,NaBi2AuO5,0.8399000000000001
mp-3419,RbAuF4,2.5364000000000004
mp-766646,LiNiPO4,3.5026
mp-636647,Fe3(PO4)2,3.2492
mp-626000,NaHO,2.9879
mp-10669,Ba3(AlGe)2,0.0
mp-754152,YBiO3,2.4743000000000004
mp-561045,Ba8Ce3(SbO6)4,1.8772000000000009
mp-862927,LiPmHg2,0.0
mp-560051,RbSiBiS4,2.0817999999999994
mp-534,B13N2,0.0
mp-736386,VH24C4N4Cl7,0.14590000000000006
mp-1073410,MgSi2,0.0
mp-744690,NaLi3Ti2Fe2(PO4)6,2.2378
mp-29015,CaThBr6,2.0416
mp-570673,ScNi5,0.0
mp-743965,SiH12N2(O2F3)2,0.5504
mp-504771,LaCo8P5,0.0
mp-542824,Ce3(AgSn)4,0.00020000000000042206
mp-1097311,Si2TcRu,0.0
mp-22870,InBr,1.2574999999999998
mp-559957,SrTiGeO5,2.8409000000000004
mp-554856,Na2Si2O5,4.4186
mp-1026912,Te2MoWSeS,0.2386000000000004
mp-984698,Ca3Pt2,0.0
mp-1800,Nd2C3,0.0
mp-998988,Ti3Ga,0.0
mp-697744,LiMnP2O7,1.5734
mp-1036357,CaMg14NbO16,0.015600000000000946
mp-2800,USi3,0.0
mp-862829,PaTe2Au,0.0
mp-542864,Na2NiH12(SO7)2,4.8423
mp-31890,Li4Fe(PO4)2,4.0392
mp-1035013,Mg14CdCoO16,2.0304
mp-2604,MgTe2,1.1161999999999992
mp-1096635,LiCrIr2,0.17940000000000025
mp-4847,Y4Al23Ni6,0.0
mp-1014296,C3N,0.0
mp-753009,Li2AgF3,1.7102
mvc-3021,Ba2Ca2Tl2Co3O10,0.0
mp-1266,Na2Se,2.0162
mp-12060,Nd(AsPd)2,0.0
mp-22724,CeZrF7,0.0935999999999999
mp-604915,CrSe,0.0
mp-864969,Mg2PdRh,0.0
mp-1079239,Ho6MnTe2,0.0
mp-621926,Na2TiSiO5,3.1096000000000004
mp-757458,Tl8Os8O27,0.0
mp-770771,SrSc2O4,3.4364
mvc-2899,W9O13,0.0
mp-765385,LiV(CO3)2,1.8899
mp-762854,Li4Mn2Ni3O10,0.0
mp-1028028,YMg14Sn,0.0
mp-861654,HoInPd2,0.0
mvc-6172,Bi3(AsO4)4,0.0
mp-1073045,Mg2Si3,0.0
mp-9263,KErTe2,1.3347000000000002
mp-10651,YbSi,0.0
mp-764362,LiNiF3,4.8387
mp-583193,Cs3PSe4,1.8309
mp-11928,Pr2AlCo2,0.0
mp-602268,Zr2In5Ni,0.0
mp-1065288,GdInAu2,0.0
mp-1080679,LiTaF6,6.2417
mp-734045,Cu2H2Se2O7,0.1964999999999999
mp-571626,Mg3Ga7Co2,0.0
mp-675477,Sn4Bi2Se7,0.0
mp-558927,SrFeF5,3.7149
mp-5083,Er(CuGe)2,0.0
mvc-4482,Mg3Ni2(GeO4)3,0.34460000000000024
mp-557584,K4Ba(GeO3)3,3.2293
mp-22935,CsBrF,2.4765
mvc-6965,MgP2WO7,1.6321999999999992
mp-1016661,Mg6GaMo,0.0
mp-206,Tb5Si3,0.0
mp-1070755,Y2GaNi2,0.0
mp-755515,Lu2TeO6,2.9822
mp-505630,Ta2Cr4Si5,0.0
mp-36383,Ag3(PO4)2,0.0
mp-638469,BaC2S2(OF)6,6.1553
mp-766060,Li3Fe8(BO3)8,1.4476
mp-23333,Hg3Cl4O,1.4621
mp-566982,KV4P7O24,1.8430000000000004
mp-25664,Fe(PO3)3,2.8893
mp-561851,CsNO3,3.2536
mp-19625,Ba2CoO4,1.2582000000000002
mp-540962,KLa(PO3)4,4.8922
mp-1032269,Mg6CoNiO8,0.0
mp-977444,PaAgAu2,0.0
mp-753803,Cs2CaO2,2.3181000000000003
mp-13416,Sc2InNi2,0.0
mp-560504,Rb2Sb2OF10,3.7737
mp-709019,Ca2CuH6(CO2)6,0.7255
mp-505615,Sr3EuRhO6,0.03649999999999976
mp-566216,Fe2Te2W(CO)10,1.9275
mp-759408,AgH8C4N8F,3.8125
mp-505014,Cs4Sn2Te7,1.1354000000000002
mp-36738,Fe2CoO4,1.1935999999999996
mp-673637,Ti9S10,0.0
mp-761303,LiNiBO3,3.1533
mp-769715,LiVBO4,2.5334000000000003
mp-764369,Ba8Mn8O23,1.037
mp-1095664,FeCoP,0.0
mp-504211,LiSn(PO3)3,4.0722
mp-766429,SiH18C2N8(OF3)2,4.9958
mp-767855,LiMn2(PO4)2,0.14159999999999998
mp-865175,LiEuTl2,0.0
mp-762790,Li3V4P2O8F9,1.9562
mp-644259,Ti2NiH,0.0
mp-773843,LiTi2(PO4)3,2.2960000000000003
mp-560501,Tb3CuSiS7,1.7277000000000005
mp-765431,LiVOF2,1.4401
mp-781602,Mn8O13F3,0.0
mp-31636,LiCrPO5,0.20199999999999999
mp-12406,US3,0.0
mp-770267,Li24Mn5Cr7O36,1.0373
mp-559010,Sb2OsC4(OF3)4,3.6738
mp-19119,Sr2NiOsO6,0.0
mp-12295,Sr3La2(BO3)4,4.1936
mp-2750,Cr2Te3,0.0
mp-8754,NaLiTe,2.2840000000000003
mp-24958,Na4Fe2(PO4)3,0.1504000000000003
mp-4,Nd,0.0
mp-927,CuP2,0.8635000000000002
mp-1034881,CsNaMg14O15,1.1264999999999996
mp-778735,Mn6OF11,0.3946
mp-557130,Zn2TeCl2O3,3.6546
mp-1955,ErCu,0.0
mp-705830,Rb5(WO3)18,0.0
mvc-6634,YMn3F15,0.0
mp-767166,Li2V(CO3)2,2.8253
mvc-14653,Mg2VSbO6,1.0606
mp-14088,Rb2PdF6,2.2614
mp-768942,Ho2(SeO3)3,3.4041
mp-696588,PH3,1.4945
mp-13164,Ti2Pd,0.0
mp-29387,K5SnBi3,0.0032999999999998586
mp-1096164,KRbHg2,0.1291
mp-573051,ReO3F,3.0005
mvc-6691,Zn3Fe3(AsO4)4,0.0
mp-31719,Cr2P3O11,0.02249999999999996
mp-568727,ErRh3C,0.0
mp-39140,Na4Al3Si3HO13,4.0558000000000005
mp-1077232,WN2,1.5764999999999991
mp-30350,Li2AgSn,0.0
mvc-1832,YCu7O12,0.0
mp-7600,Th(FeSi)2,0.0
mp-21767,Si2Pb3O7,2.6294
mp-771986,Li4Fe3O8,0.1331
mp-865830,Lu2CuOs,0.0
mp-22394,ThRu3C,0.0
mp-721084,H7IN2,3.6926
mp-676975,Ba3Na7Ti3Nb7O30,1.1087000000000002
mp-10863,Li4Yb5Ge4,0.0
mp-24668,CsHF2,6.5186
mvc-5424,Mg(SbO2)2,2.4588
mp-768194,Li3SbS3,1.6745
mp-647727,Re2N2ClF9,2.0294
mp-773436,NaLi5Fe2P2(CO7)2,4.0042
mp-19548,CaMn2Be3(SiO4)3,4.1625
mp-980660,Tm3Mg,0.0
mp-972423,TbGa2Pd,0.0
mp-754605,LiLuO2,4.5008
mp-763331,LiMn2F5,3.0768
mvc-11780,MoS2,0.0
mp-625175,H3ClO5,5.4045
mp-559627,LiP3PbO9,4.7126
mp-1009817,TaC,0.0
mp-37216,CdPbF6,2.3364000000000003
mp-561481,Ba5Ru2ClO9,0.0
mp-756708,CaPrO3,0.0
mvc-1220,Bi3Se2ClO8,0.7314999999999999
mp-581990,Bi3Rh,0.0
mp-1098733,Mg30MnCdO32,2.2376
mp-24927,CrHO2,2.9692
mp-778555,Li2Mn2(SO4)3,4.6747000000000005
mp-864982,DyBr3,3.0029
mp-540739,Ba3YIr2O9,0.01770000000000049
mp-505438,BaGd2PdO5,2.0041999999999995
mp-777167,LiTiO2,0.0
mp-695286,Li11Sc7Ti(PO4)12,2.5182
mp-1027906,Mg14ZnBi,0.0
mp-1030286,Te2MoWS2,0.0
mp-774318,Li10Fe3Co3(NiO8)2,0.7782999999999998
mp-773324,Li4Fe3Ni5O16,0.0
mp-569153,PrCoSb3,0.0
mvc-15460,La2MgNiO6,1.4338999999999995
mp-669431,EuBi2BrO4,0.0
mp-863697,LiPm2Si,0.0
mp-868628,MnV3Cu2(PO4)6,0.0
mp-566066,NaFe3Si3O10,1.3599
mp-569918,K13Na2W7N19,1.5499
mp-9381,Zr6FeTe2,0.0
mp-21233,Ti3InN,0.0
mvc-9983,Mg(MoO2)2,1.0712000000000002
mp-21253,EuMg,0.04520000000000035
mp-566912,Er3Fe5O12,1.6287999999999996
mp-771870,LiMn2(PO4)2,0.2333000000000003
mp-859131,LiMnPO4,3.5238
mp-555194,SiHg3(SF3)2,2.7818
mp-13983,ZnPdF6,1.4811
mp-979258,Tm2CdHg,0.0
mp-766352,BaCa2I6,3.6892
mp-1018094,BaGaSnH,0.0524
mp-1033686,HfMg14BO16,0.0
mp-775277,K(WO3)3,0.0
mp-4721,RbSb3Se5,1.2865000000000002
mp-979081,TmMg5,0.0
mp-770591,Li3MnAlO4,0.8266999999999998
mp-772049,Li2Ti2O5,3.7604
mp-980061,TbAs3,0.0
mp-1097596,Sc2ZnRh,0.0
mp-559104,Pr4B10O21,4.990399999999998
mp-559393,K2CS2(O3F)2,5.6439
mp-569509,Er2Co7,0.0
mp-23709,Mg(AlH4)2,4.3817
mvc-3757,ZnMoF5,3.34
mp-1098678,CaMg30CuO32,0.0
mp-1031332,KLiMg6O7,0.0
mvc-4829,Zn(MoO2)2,0.4264000000000001
mp-1016576,BaMg6B,0.0
mp-6956,La(FeP)2,0.0
mp-774524,Li3La5Ti6Nb2O26,1.9064
mp-706715,Na5P5(H9O7)2,4.9948
mp-982734,WN2,0.0
mp-41734,Na8Al6Si6SO28,4.1847
mp-571347,Pr3CuGeSe7,1.2047
mp-684605,Cu17Se10,0.0
mp-1095998,BeFe2P,0.0
mp-540179,Li2Cr3(P2O7)2,2.4616
mp-1079904,UInPt2,0.0
mp-761703,Mn2Ni3P6WO24,0.02180000000000004
mp-768500,Sb2(SO4)3,3.1011999999999995
mp-1095065,Sm2InNi2,0.0
mp-557278,Na2InNiF7,4.1625
mp-703295,SrH2I2O,3.6429
mp-625930,V3(HO2)4,0.8161999999999999
mp-22159,UNiAs2,0.0
mp-1074667,Mg2Si,0.0
mp-1097373,ScInHg2,0.0
mp-19909,Dy(CrSi)2,0.001100000000000101
mp-22138,GdCd3,0.0043000000000001926
mp-1014281,C3N,0.0
mp-1034797,RbNaMg14O15,1.3200000000000005
mp-758265,LiCu2F6,0.0
mp-850229,LiV2P4(HO8)2,0.8465000000000003
mp-11478,GaAg,0.0
mp-773314,Li4MnFe3O8,0.5739000000000001
mp-1022452,CsMg6Cu,0.0
mp-569547,Sr6FeC2N7,0.09929999999999994
mp-560339,Ca2Zr(SiO3)4,4.8495
mp-31169,ScAlAg2,0.08000000000000007
mp-23445,Bi2Ru2O7,0.037199999999999456
mp-780491,Fe4O3F5,0.9574000000000004
mp-761343,Li16Fe4SiO16,2.1387
mvc-7965,VAs2O7,1.3716
mp-778412,Co2O3F,0.0
mp-867270,Be2CoPt,0.0
mp-36988,Ca(AlSe2)2,2.8458
mp-30052,Ni6Mo6C,0.0
mp-27191,Zr9S2,0.0
mp-1098437,CeMg30BO32,0.0
mp-1096318,LiScZn2,0.1315000000000004
mp-557697,Hg2Sb2O7,0.0
mp-303,BaZn5,0.0
mp-7473,LiCu2Si,0.0
mp-2216,Ce2Co17,0.0015000000000000568
mp-1095901,SrCaAg2,0.2172000000000001
mp-568349,Cr(FeSe2)2,0.0
mp-29717,Ag(W3Br7)2,0.0
mp-853230,Li2V3CuO8,0.0
mp-1078930,MgN8,0.7761
mp-762805,Li4Mn5(FeO6)2,0.9136000000000002
mp-778032,LiV2(SiO4)2,1.1361
mp-17337,RbAsOF4,3.7089
mp-1002207,ReN,0.0
mp-1091393,PuGaNi,0.0
mp-601902,Tl2HPtC5N5O,3.2976
mp-1099053,CaMg14BiO16,0.0
mp-690708,KLiPH2O4F,4.9035
mp-542459,BaGa2(GeO4)2,3.2617
mp-1080650,BaCuSF,1.6000999999999994
mp-17048,Rb2WS4,1.9936000000000005
mp-558073,Sb2SeI2F11,1.4002
mp-1096424,Zr2CuPt,0.0
mp-558298,Zn3TeAs2Pb3O14,2.9582
mp-561845,YbAu2F9,0.004799999999999915
mp-706295,H6PtN2ClO5,0.3136
mvc-2989,SrMgCo(PO4)2,2.9702
mp-504607,YInO3,2.0516999999999994
mp-559398,Tm4Mo4O11,0.4676999999999998
mp-5363,Hg2TeO5,0.5273999999999996
mp-776661,NbV3O10,1.5159
mp-863408,LiSiBiO4,3.0357000000000003
mp-942733,Li7La3Zr2O12,4.450799999999999
mp-764846,Li2MnF4,3.8456
mp-542953,CaZn3Ni2,0.0
mp-638038,SiO2,0.0
mp-560961,H11C10NO8,2.7752
mp-565426,Na2GaNiF7,4.3409
mp-568816,K2FeCu(CN)6,0.5028
mp-13863,BaGeO3,3.5403
mp-743618,CoPH6O6F,0.0
mp-765486,PrAl22O34,0.0
mp-1026755,LaMg14W,0.0
mp-530391,Sr(FeS2)2,0.0
mp-9510,Tl2PAuS4,1.2929000000000004
mp-758587,Li2CuPO4,1.4144000000000003
mp-865210,TmLuMg2,0.0
mp-768989,Bi2B2O7,0.9355
mp-30371,Cd5Au3,0.0
mp-1079621,SmClO2,0.0
mp-764882,Fe4O5F3,0.0
mp-1026837,LiLaMg14,0.0
mp-555483,SiO2,4.721699999999999
mp-853150,Mn3(OF2)2,0.0
mp-562057,Cs2Ca2Be3F12,7.1052
mp-770462,La2Bi2O7,0.0
mp-13031,MgSe,2.7934
mp-3576,HfGaCo2,0.02700000000000013
mp-1099591,NaVO3,0.2251999999999996
mp-29303,Tl4Sn5S12,1.3232999999999997
mp-568692,In4Br7,2.2604
mp-690112,H(WO3)2,0.488
mp-674017,Nb17Ir3Se40,0.0
mp-697033,CdH4CN2Cl2O,3.5746
mp-2358,SmAl2,0.0
mp-777085,Li4Ni(BO3)2,3.4657
mp-1033656,RbMg6BO7,0.0
mp-752699,LiAgF3,0.0
mp-1074279,Mg4Si3,0.0
mp-974616,Pt3Rh,0.0
mp-562610,SnO2,0.4320000000000004
mp-23205,MgI2,3.6162000000000014
mp-1024044,Mg3CrO4,0.0
mp-761702,LiCoPO4,2.4138
mp-9512,SrAl2P2(O4F)2,5.4887
mvc-3637,Zn2W3O8,0.44499999999999984
mp-1096051,LiCd2Cu,1.0587
mp-772781,Lu2B4O9,5.7803
mvc-5022,TeWO6,1.9937
mp-505517,BaNb4O6,0.0
mp-769015,DyGaO3,2.8659
mp-733862,KCaP3(HO2)6,5.230499999999998
mp-773089,K3Li2Nb6(PO8)3,0.0
mp-753712,YIO,3.4111
mp-733898,Mg3B11(H3O8)3,3.8637
mp-18686,ZrCr5P3,0.0
mp-504644,KCeF4,0.015900000000000247
mp-1097370,Ca2MgGa,0.0
mp-774324,Li6MnFe5(BO3)6,2.8479
mp-621960,Sb4Pb4S11,0.0
mp-569886,KIn9Ni2,0.0
mp-16136,Sr3TaGa3(SiO7)2,3.8521
mp-23058,NdClO,4.766400000000001
mp-1027153,Te2MoW3(SeS2)2,0.0
mp-559738,SbSNCl5,1.7869
mp-555438,Ba3AlF9,6.4405
mvc-9617,Ca(SnO2)2,0.0
mvc-2447,CaSnO2,1.6462000000000003
mp-653995,As4Pb8Cl6O11,2.1995
mp-634859,CaO2,2.7345
mp-1094000,KWO3,0.0
mp-1036151,Mg14MnVO16,1.7482000000000006
mp-639149,KZrPSe6,0.0
mp-1029321,Te2MoWSe2,0.06909999999999973
mp-773988,Li4Ti3Co3(SbO8)2,0.6356999999999999
mp-560039,NaY(SiO3)2,4.709
mp-27519,SeO3,2.4312
mp-1026504,HfMg14Cr,0.0
mp-565206,K5In(MoO4)4,3.4447
mp-1028991,Te2MoW3(SeS2)2,0.0
mp-27872,MgTi2O4,0.00739999999999963
mp-972965,GdF3,2.865
mp-18660,Sr(ScTe2)2,0.4482000000000008
mp-983564,EuAsO3,0.0
mp-24153,LaH2,0.0
mp-7956,Na3Sb,0.39859999999999984
mp-1068035,Ca2MgPd2,0.0
mp-17020,TiTl2(GeO3)3,2.6548
mp-674355,Co(NiS2)2,0.0
mp-1095287,ScTlP2S7,1.9444
mp-505089,Li4TbF8,8.3661
mp-1077254,ScAl2,0.0
mp-24968,FeMoClO4,2.2046
mp-1039741,NaHfMg30O31,0.09539999999999972
mp-998970,TiFe2Sb,0.0
mp-780642,Li2Co2OF6,1.017
mvc-15986,Ca2Co3O8,0.5688
mp-1080866,CeSe2,0.7957999999999998
mvc-9578,Mg(CuO2)2,0.0
mp-768281,Ho2Ge2O7,3.3100000000000005
mp-771716,Li4FeTe(WO6)2,0.0
mp-18971,Mn(PtO2)3,0.2408999999999999
mp-1097679,TiV2Re,0.0
mp-571230,Dy4InRh,0.0
mp-1022967,YMg6Fe,0.0
mp-510378,CsMnSb,0.0
mp-2233,Th2Ag,0.0
mp-27402,Na2CoCl4,0.7301
mp-647814,U2O5,0.0
mp-863698,Pm2MgAl,0.0
mp-699398,CsMnMo(OF)3,0.018799999999999928
mp-989546,SrTcN3,0.0
mp-1080513,CuH4(OF)2,0.5986000000000001
mp-21266,BPPbO5,4.259
mp-761817,LiNbVO4,1.2698
mp-754936,DyAlO3,5.166
mp-10444,Ca2Al2O5,3.5638
mp-757266,BaTi7O14,0.0
mp-29558,Bi3ClO4,2.3000000000000003
mp-3317,SmRhO3,0.7336
mvc-16032,Ca7(TiS2)8,0.0
mp-19963,TiFe2Sn,0.04959999999999986
mp-28313,NdCl2,0.0
mp-762516,Li3Mn3O8,0.0
mp-531811,Ho2CdS4,1.3568999999999998
mp-567125,MnNi(BiO3)2,0.5164999999999997
mp-14637,Cs2NbAgSe4,1.8644
mp-1034339,BaMg14SnO16,0.0
mp-622570,Ti2Cu3,0.0
mp-765454,TiCr7O12,0.0
mp-1040283,KNaMg30O31,2.0721000000000007
mp-557395,LiC2S2N(O2F3)2,5.9283
mp-9227,Ti3Se4,0.0
mp-1025350,Nb2CoS4,0.0
mp-1001117,Mn3N2,0.0
mp-765210,W7(OF5)6,3.4889
mp-8119,PrCuSi,0.0
mp-677103,RbHF2,6.6658
mp-573473,Eu(SbPd)2,0.0
mp-1020146,Na2LiB5(PO7)2,5.4471
mp-764883,Fe4O7F,0.0
mp-773261,LiZn(FeO2)4,0.0
mp-626562,Ca(H8O5)2,3.7409
mp-715496,Cr2O3,3.0467
mp-7500,Na4SiO4,3.2221
mp-625094,Cd(HO)2,1.6945
mp-5181,LuSnPd2,0.06620000000000026
mvc-5721,MgFeP2O7,3.9277
mp-3637,YOF,4.9285
mp-764950,Li4CrSb(WO6)2,1.5482
mp-37859,Sr(PrSe2)2,1.7496999999999998
mvc-89,Ca2Nb2CuO8,0.41090000000000027
mp-1037139,HfMg30CuO32,0.020500000000000185
mp-19069,NiAgO2,0.0
mp-764790,Li2FeSiO4,3.1211
mp-14252,Ca3UO6,2.2602
mp-765332,Mn3F8,0.9161
mp-555034,TeAs(IF2)3,1.8895
mp-971844,Tm6GaCo2,0.0
mp-1079168,ThGaPt,0.0
mp-540809,Zr2Fe12P7,0.002100000000000436
mp-648984,LaSiAs3,0.0
mp-776647,LiV4O5F7,0.6176
mp-1097094,V2MoIr,0.0
mp-1075954,La5Sm3Cr7FeO24,1.9836
mp-4613,Zr2SnC,0.0
mp-29616,CsCrCl3,0.009100000000000108
mp-17464,SrGeO3,3.4068
mp-555911,TlAsF6,4.6463
mp-1023279,Mg6AlB,0.0
mvc-6276,MgCuBi2O7,0.0
mp-558846,Cs2As4Pd3O14,0.32799999999999985
mp-22351,NbRu3C,0.05349999999999967
mp-31744,Cr3(PO4)4,0.03610000000000002
mp-20898,DyInAg2,0.0
mp-22785,SmMnB4,0.0
mp-18515,NaGdSiO4,3.2573
mp-568904,KTh(SbSe3)2,0.6898
mp-707811,ZrH6NOF5,5.7752
mp-1094906,Ca5Mg,0.0
mp-764717,Li2MnF6,2.9997
mp-12904,HoAgTe2,0.9017999999999996
mp-2861,CaTl,0.0
mvc-353,BaTl(CoO3)2,0.0
mp-864767,YbZn11,0.0
mp-643004,SrMg2FeH8,1.7242999999999995
mp-542933,TbMg2Cu9,0.0
mp-778922,V2(OF)3,1.6878000000000002
mp-29760,Ca10P6O25,3.1485
mp-569317,Cr3InO8,0.26370000000000005
mp-1097637,ZnCdAu2,0.000399999999999956
mp-972884,Sc2AlCu,0.0
mp-1095781,Ba2MgIn,0.0
mp-1098533,CsMg30BO31,1.6965000000000012
mp-541994,MnNb3O6,0.0
mp-757428,Cd2Si(P2O7)2,3.937100000000002
mp-849062,V3S4,0.0
mp-765308,Li2MnO2F,0.8740000000000001
mp-865884,LuInRh2,0.0
mp-764367,V2OF5,1.6925
mp-767296,Li4TiMn3(PO4)4,0.0
mp-774178,Mn3Co2Te3O16,0.0
mp-29090,Rb4Au6S5,1.6980000000000002
mp-1034465,Mg14VBiO16,0.0
mp-779249,Gd3TaO7,2.5573
mp-952,MoPt2,0.0
mp-694970,SrLa7Cu4(SnO6)4,0.0
mp-29630,Li7Ge2,0.11840000000000005
mp-30846,Sn3Pt2,0.0
mvc-4168,Ca2TaSnO6,0.014299999999999537
mp-639306,CeBC,0.0
mp-972848,SiC3,0.0
mp-23474,AgBi3S5,0.5219999999999994
mvc-13711,Ca2CuN2,0.1858
mp-1080817,NbFeB,0.0
mp-998750,KAgCl3,0.0
mp-686417,Zr25Sc6O59,3.5813
mp-647209,Ga4P4O17,0.21899999999999986
mp-1079477,Ba2VMoO6,0.3498000000000001
mp-676920,K7(Si2Te5)4,0.0
mp-775844,Zr2N2O,1.5814000000000004
mp-706459,Fe4C14O13,1.2664
mp-559352,Ba4Na(BiO4)3,0.2658999999999998
mp-2675,MgNi2,0.0
mp-624769,P2WO8,2.5304
mp-20374,Ho2C(NO)2,3.9960999999999993
mp-778553,LiMnF4,1.0038
mp-673023,LiBi(PO3)4,4.8169
mp-18568,Na2Ge2S5,2.5142
mp-32023,LiMn2(PO4)3,0.0
mp-769689,Cu(NiO2)2,0.0
mp-7436,KCuTe,0.6037000000000003
mvc-2921,ZnFeO2,0.4966000000000002
mp-1000830,KYbS2,0.0
mp-1066989,H2,6.2332
mp-625913,TeHO3,2.1791
mp-12055,LaCd2,0.0
mp-567337,Li,0.0
mvc-4025,Y2Ti3(SiO4)3,0.2881
mp-2914,LaSi3Ir,0.0
mp-755703,LiSbO2,2.0381
mp-558258,Eu2I2O,0.09149999999999993
mp-15551,Sr2LiSi3,0.0
mp-645842,SrAl2(SiO4)2,0.25710000000000033
mp-31640,Li3Cr3(PO4)4,2.6908
mp-1084834,K2Tc,0.0
mvc-13325,Sr2AlGaFe2O7,1.2763999999999998
mp-771630,LiCr3(FeO4)2,1.3003
mp-542113,KMo5O13,0.024999999999999908
mp-556475,KLaPdO3,0.4866000000000002
mp-754834,Er2TeO2,0.4964000000000004
mp-1006617,ZnP2NO9,0.0997
mp-23104,Pb2ClOF,2.5689999999999995
mp-15657,TiCoSi,0.0
mp-8393,Tl3SbS3,1.592
mp-643084,Gd2O3,2.8568
mp-772319,Li4Co3Ni5O16,0.6783000000000001
mvc-14586,ZnSnO2,1.6448
mp-582585,SrCu2(PO4)2,0.4719000000000002
mp-1072944,ScCu4Sn,0.0
mp-771244,Li4Co13O28,0.4038
mp-755832,Na5GdO4,2.1312
mp-1034033,Mg14TiCO16,0.0
mp-764481,LiMnV(P2O7)2,1.2397
mp-30644,Hf3Nb2Ga3,0.0
mp-850139,LiCo3OF5,2.6377
mp-1075693,Mg5Si9,0.0
mp-1029448,Li5OsN4,0.0
mp-778867,Li3Mn4(BO3)4,0.2851999999999999
mp-777908,Li2FeBO4,2.7011
mp-761269,Li2AgF4,0.3751000000000001
mp-861971,PaGaCu2,0.0
mp-13292,TbYb2PrS6,1.2724000000000002
mp-20743,LaInPd2,0.0
mp-865169,CaErRh2,0.0
mp-707727,H2C2N2O,3.9224
mp-558959,CS5N5O3F,1.8811
mp-973529,LuB4Os,0.0
mp-862337,Sc2InAg,0.0
mp-555559,Sm3NbSe3O4,1.6340000000000003
mp-570909,CuTe4H12C4N,0.4093
mp-1453,NdSe,0.0
mp-554663,Mg2SiO4,4.5874000000000015
mp-1095657,TbSb2,0.0
mp-978513,SmErMg2,0.0
mp-21057,La(GePt)2,0.0
mvc-3812,Zn2Cu2O5,0.0
mp-1031694,SrMg6VO8,0.4952999999999994
mp-765296,Li9Fe4(BO3)8,0.0
mp-1079998,Co(IN3)2,0.0
mp-1032741,YMg6TiO8,0.0
mp-1036763,Mg30VSnO32,1.9945000000000004
mp-27578,As(S2F3)2,1.2403
mvc-9120,CaCo2(PO5)2,0.0
mvc-9683,MgSn2(PO4)2,2.6719
mp-867146,ScNbRu2,0.0
mp-770135,Li2MnV(PO4)3,1.1412
mp-30075,Ti4FeS8,0.0
mp-1023394,Mg6AlV,0.0
mp-759933,Li2Sn(BO3)2,2.385
mp-675452,Ti20H2N17,0.0
mp-974865,NdY3,0.0
mp-1087492,Li2ZnSi,0.0
mp-705612,LiMn8O16,0.0
mp-709326,Zn3P3H10C2NO13,0.7487
mp-1076986,TaCo2,0.0
mp-6384,RbSO2F,4.0947
mp-991061,NdCd,0.0
mp-18713,Ba2Li(CuO2)3,0.0
mp-779997,LiFe2OF5,2.2705
mp-23704,NaAlH4,4.6648
mp-1029878,SrMnN2,0.0
mp-27440,ZrCl,0.0
mp-36465,Al2FeO4,2.7524000000000006
mp-643754,HgH2NCl,2.3849
mp-1096608,BaSrTl2,0.4623000000000002
mvc-425,MgTi3(P2O7)2,0.07580000000000009
mp-779294,Na3Sb5O14,1.1243999999999996
mp-1009731,ReC,0.0
mp-540212,Li3Mo(PO3)8,1.1015
mp-1035195,Mg14VZnO16,1.2494999999999994
mvc-667,Te(WO4)2,2.3586
mp-22719,Ba2NdCu3O7,0.0
mp-638009,RbPPbS4,2.3703
mp-974603,HgF2,0.40170000000000017
mp-650124,K2Rb2Re6S13,1.3711000000000002
mp-684934,U5O11,0.0
mvc-1104,Ba2AlSn3O7,0.0
mp-695048,GdTi2CdO6F,1.3352000000000004
mp-35269,Ca4Sb2S,1.0818999999999992
mp-669307,FeSbPt,0.0
mp-695172,CsMg12Al25Si29O108,4.346
mp-22612,FeCu2SnSe4,0.01930000000000032
mp-756557,LiY4Ti4(S2O5)2,0.0
mp-136,Fe,0.0
mp-1093622,Al2TcPt,0.05370000000000008
mp-1064272,NaN3,0.8609
mp-13981,KPO3,4.821199999999998
mp-763828,Li2Co(CO3)2,2.1152
mvc-16230,Al(CoO2)2,0.0
mp-32015,Li3Mn2(PO4)3,1.2312999999999998
mp-756880,KCePCO7,1.1828
mp-634591,Nd2Tl(MoO4)4,2.9399999999999995
mp-580886,ZrIN,0.7367999999999997
mp-764764,Li7Mn5O12,0.6299000000000001
mp-767146,Li7Ti12NbO30,2.6266
mp-1029294,LiSn2N3,0.8393999999999995
mp-777635,LiVFeP2(O4F)2,1.7181000000000002
mp-4326,KErS2,2.3715
mp-20664,Mn2Sb,0.012199999999999987
mvc-12634,Ca(NiO2)2,0.0
mp-10969,CdCN2,2.2933
mp-763180,FeOF,1.5808999999999995
mp-649774,CuSbPbS3,0.7698
mp-29157,Si3P2Pt,0.6506999999999996
mp-23691,Tl(BH)6,4.526999999999999
mp-761503,Li2Cr4Si4O13,1.4543
mp-556527,Rb4CO4,1.4407
mp-772141,Ba2LaI7,2.5893
mp-641962,KAuC2(SN)2,2.2406
mp-979910,VCuRh2,0.0
mvc-2985,Ba2YTlFe2O7,0.0
mp-540457,Li4CrP2O9,0.4375
mp-761470,Li2Mn2Si5O13,3.286
mp-567687,CrI2,0.5076
mp-695906,RbSmH8(SO6)2,5.1941
mp-3867,Pr2Co7B3,0.0
mp-561309,Na(CO)3,1.0804
mp-560192,TaP4(SCl)5,2.1765
mp-761317,Li2VSi4O11,2.2167000000000003