mpid,formula,gap pbe
mp-557806,Er2Tc2O7,0.10930000000000016
mp-4105,Ho(CuSi)2,0.0
mp-1094488,MgZn,0.0
mp-637336,NaSbMoO5,3.3588
mp-759686,BeAlSiHO5,5.360499999999999
mp-32510,Li5V2P5O18,1.9116
mp-773913,Ba3CrO5,1.7839999999999998
mp-25020,MnNi(BiO3)2,0.9037999999999996
mp-759234,Li3CuF6,0.93
mvc-7198,BaYCu2O5,0.0
mp-1097197,LiZrCu2,0.09820000000000027
mp-973456,Lu2TcAu,0.0
mp-761654,TiCo(PO4)2,1.8653
mp-752442,BaLu2O4,3.2520999999999995
mp-1075100,Mg3Si4,0.0
mvc-27,Mg(TiS2)2,0.0
mp-778731,Li2MnF4,3.8341
mp-4865,Er(NiGe)2,0.0
mp-602659,HXeF7,2.8858
mp-758849,CuSn(PO4)2,0.19890000000000008
mp-974744,NdZn2Ag,0.0
mp-9305,Mn4As3,0.0
mvc-6211,Ca2YCrO5,2.2051
mp-778721,Li8Mn7Fe(BO3)8,2.9745000000000004
mp-20425,NpSi3,0.0015000000000000568
mp-1095554,ErNi3,0.0
mp-672275,Ce3(Ge3Pd10)2,0.0
mp-1022492,SrMg6Zr,0.0
mp-850484,LiVPO4,2.575
mp-972246,Tb2ReC2,0.0
mp-19933,PuSb,0.0
mp-9634,Na3AgS2,2.3243
mp-769542,Na5Cr2As(CO4)4,0.2356999999999998
mvc-3153,Zn4Te3W5O18,0.2953999999999999
mp-556229,Li2MnF5,1.8414
mp-1096669,Tl2HgPb,0.0
mp-684923,Cu25Se26,0.0
mvc-14279,ZnSbF5,3.7056
mp-684583,CsO2,0.0
mp-541297,Fe2(SeO4)3,2.2573000000000003
mp-570514,Cd2Fe(CN)6,2.609
mvc-11198,YTiO3,0.0
mp-637204,CeCu5Sn,0.0
mp-863705,Pm2MgGa,0.0
mp-568082,La3CuSiSe7,1.5846
mp-10734,Ti4O5,0.0
mp-850450,Li7Fe8(BO3)8,1.4263
mp-686747,K2Nb6Ag(PO8)3,1.7979
mp-777555,MnV2O6,1.9661
mp-565555,VP2O7,1.3319
mp-1016275,CsHfMg6,0.0
mp-29358,Zr6BCl14,0.0
mp-777005,Li2FeF4,3.5017
mp-775616,Li2Ti3CrO8,0.0
mp-675672,Zr5Sc2O13,3.647
mp-3040,TbCo3B2,0.0
mp-1078216,Sr2Ti2Bi2OF2,0.0
mp-12087,Cu2S,0.0
mp-997039,AgPdO2,0.0
mp-558875,HoTe2ClO5,2.9145
mvc-16228,MnAlF5,4.4125000000000005
mp-683867,Tb(BO2)3,5.5089000000000015
mp-574004,GdMgGa,0.0
mp-985583,Li3PS4,2.9512
mp-648788,Te7OsO5F32,0.10459999999999993
mp-768085,Na2MnPCO7,0.5288000000000002
mp-762640,LiFe(PO3)4,2.6513
mp-18786,Ca2CoSi2O7,3.2421
mp-866830,Ca3SnS5,1.0141
mvc-3005,SrZnCr(PO4)2,2.2745
mp-568532,CuB2(CN)8,0.8959999999999999
mp-769374,Li2B5SbO10,3.3989999999999996
mp-677262,KInI4,2.5931
mp-760134,NbSb3O8,1.8179
mp-615459,La2Ni5C3,0.0
mp-774086,Li2Mn2FeO6,0.0
mvc-11769,Al10(Cu2O7)3,0.0
mp-1001793,KCoCl3,0.0
mp-1040135,LiMg30BO32,4.510199999999998
mp-17738,Sr2Cu(SeO3)3,0.5975999999999999
mp-625927,H5NO,4.5812
mvc-16013,Mg2W3O8,0.7349000000000006
mp-541908,KSbF6,4.9633
mp-30795,Na2Tl,0.0
mp-6896,Rb2NaCo(CN)6,4.3389000000000015
mvc-2169,Ti5O7,0.0
mp-8120,NdCuSi,0.0
mp-1094556,MgSb2,0.0
mp-1080252,CeSe2,0.0
mp-30597,Cu10Sn3,0.0
mp-776140,Li2MnV5O12,0.0
mp-1028005,Mg14ZnMo,0.0
mp-3880,Cr2CuSe4,0.0
mp-768358,ScInO3,2.1968
mp-530787,Y6Zr22O53,0.43400000000000016
mvc-9841,Ba2YV2F11,2.4633
mp-32509,V(PO3)4,1.8257
mp-41109,Ca3Er3Ge2BO13,3.6346
mp-574424,SeN,1.9513
mvc-7741,Ca(CoO2)2,0.5274000000000001
mp-1022586,CeMg6Ni,0.0
mp-772758,Sm2Zr2O7,3.9634
mp-1033898,Mg14CrBO16,0.0
mp-764584,Na2FeO3,0.0
mp-1097709,CsPb2Cl5,3.375
mp-558674,K2NaFeF6,4.0922
mp-631524,BTe2As,0.0
mp-744840,ZrH8(NF3)2,2.2485
mp-12647,TbNbO4,3.5134000000000003
mp-756570,Rb4SnO3,1.4742000000000002
mp-15919,BeAgPO4,2.6504000000000003
mp-762534,Li2Fe2(SiO3)3,3.0875
mp-1034028,KLiMg14O15,1.4657
mp-8179,LiTlO2,0.40200000000000014
mp-1063610,UV2,0.0
mp-1030159,Te4MoW3(SeS)2,0.0
mp-20644,PuPt2,0.00019999999999953388
mp-1026403,Mg14SnMo,0.0
mp-771774,Na2SiSnCO7,3.0973999999999995
mp-31896,Fe3(PO4)4,0.0748
mp-1078702,EuAs3,0.0
mp-771389,Li2V3BiO8,0.9152999999999998
mp-540169,Co3(PO4)4,0.0668
mvc-10305,CaAg3P3O13,0.0
mp-542100,K4Nb2Si8O23,3.7939999999999996
mp-1076123,Eu2Co2O5,0.0
mp-1070507,Lu2AlNi2,0.0
mp-571547,Te2Au,0.0
mp-541365,LiEuH3,0.2725999999999997
mp-979715,YHoAl2,0.0
mp-864627,Nd2Ga12Ni,0.0
mp-574438,ThRu2,0.0
mp-771179,Li4Nb5Cr3O16,0.14459999999999962
mp-1058588,PrSb,0.0
mp-555862,CsZr(NO3)5,3.4458
mp-769878,Rb2Fe2O3,1.0686999999999998
mp-559715,Li2Cd(PO3)4,4.5942
mp-39387,SrLiTa2O6F,3.6165
mp-23587,HoSeClO3,4.3572000000000015
mp-773117,La3Si2BO10,4.4115
mp-769686,Li4TiCrO6,1.1431
mp-1035690,RbLiMg14O15,1.5033999999999996
mvc-15886,AlCoF5,3.0083
mvc-14574,Mg(TiN)2,0.0
mp-1096243,NaMgHg2,0.0
mp-768227,DyNbO4,3.2584000000000004
mp-1074026,Mg9Si5,0.0
mp-777910,Li32Ti3Cr13O48,1.0519000000000005
mp-770362,Li3Al2VO6,2.2174
mp-770845,Li2Al2FeO6,0.0
mp-763562,LiVP2O7,0.17749999999999974
mp-2150,BaTe2,0.34250000000000025
mp-1022952,Mg6MnB,0.0
mp-1074,RbSi,1.35
mp-744259,Ca3Mn2(GeO4)3,1.0177
mp-867296,RePO5,0.0
mp-773753,V2(OF)3,1.4771
mp-2337,HfCo2,0.0
mp-691140,Co8(BiO4)5,0.20630000000000007
mp-1098612,HfMg30SbO32,0.0
mp-861598,Ho2ZnOs,0.0
mp-764046,V3(O2F)2,0.4558
mp-853165,Li5CoOF5,1.0417999999999998
mp-542123,Ba3NaRu2O9,0.06269999999999998
mp-550679,Rb4CO4,1.6732999999999998
mp-862861,Pa3Si,0.0
mp-411,ErCo3,0.0
mp-762400,Li2CrSiO4,1.5431
mp-622345,U5Ge3,0.0
mp-3831,SmPO4,5.7418000000000005
mp-6982,ErB2Rh2C,0.0
mp-560032,NaNb2AsO8,2.6985
mp-775644,V3CuO8,0.8436999999999997
mp-698686,Na3CaFe4(SiO3)8,0.029700000000000063
mp-770235,Li4Ti3V3(WO8)2,0.13140000000000018
mp-977200,Na3C,0.0
mp-996941,Cs2RbInBr6,2.5058
mp-21643,UMn5P3,0.0
mp-1002083,CsKICl,4.0989
mp-1095561,NdNi3,0.0
mp-863762,AlTlSe2,1.6529999999999996
mp-554931,CF4,9.0612
mp-1029282,TeMoWSeS2,0.1634000000000002
mp-641416,Fe2(SO4)3,2.0309
mp-27760,PrSi2,0.0
mp-1084778,CsZn4As3,9.999999999976694e-05
mp-772592,RbFeO2,1.7937
mp-1022454,Mg6ZrBi,0.0
mp-20531,NdCoGe,0.012800000000000368
mp-765074,LiMnVP2(HO5)2,0.9699
mp-946,PrIr2,0.0
mp-763022,FeOF,1.7182999999999995
mp-1026861,LiLaMg14,0.0
mp-1078741,Ba2CuOsO6,0.0
mp-1028683,TeW2Se2S,0.0
mp-1078316,Ce2AlRu2,0.0
mp-998985,TiAu,0.0
mp-777494,VOF2,1.5961
mp-861929,Pu2BiAu,0.0
mp-566733,KNiAs3F18,4.5184
mp-691065,K6Ba2CaU6O24,1.9524000000000004
mp-763900,NaCo2P3O10,2.3543
mp-14355,Cs2SrP2O7,4.9488
mp-757254,Mg2Cu5O7,0.0
mp-980661,YTlAg2,0.0
mp-1032468,RbMg6MnO8,0.0
mp-762213,Li3Ni5O8,0.0
mp-1031460,Mg6SiSnO8,0.0
mp-779985,Li3FeO4,0.0
mp-756074,Bi2PO6,0.0
mp-4177,Dy(SiRu)2,0.0
mp-555302,CsFeF3,3.2787
mp-763282,Li4VP2O9,3.4929
mp-778385,B3H3SeO9,3.2394
mp-1029804,KMnN2,0.0
mp-1080576,LiB,0.0
mp-570964,ZnI2,1.8004
mp-722535,K2UP2(H2O5)2,0.006900000000000003
mp-849054,VS2,0.0
mp-566869,KNa3WO5,3.593
mp-32538,La2W2O9,3.4184
mp-558532,K2PtN3(ClO2)3,2.7094
mp-656,LuS,0.0
mp-504891,La3MnGaS7,0.4502999999999995
mp-22973,NaMnBi,0.0
mp-651160,Gd3NCl6,1.968
mp-862473,Sc2AgRu,0.0
mp-669510,Cd6Sb5,0.0
mp-1024076,Na2ZnS2,2.6259
mp-715550,MoO2,1.2163000000000004
mp-1077939,Cr(Te2Rh)2,0.0
mp-25558,MnO2,1.6123
mp-1013797,Na3Ge3(MoO6)2,0.0
mp-707249,H24C8S(NO2)2,3.7835
mp-781126,Li6Mn3(PO4)4,3.3653000000000004
mp-24124,NdH2ClO2,4.8667
mp-763329,Li2Fe3TeO8,0.0
mp-1035670,KMg14BiO16,2.2048000000000005
mvc-9214,MgBiWO5,1.6053000000000002
mp-769284,Dy2SeO2,2.1495
mp-743646,FeP3H5NO10,2.6111
mp-1028079,CeMg14Zn,0.0
mvc-5559,Ca(AgO2)2,0.9283
mp-1076871,La7SmCo6(CuO10)2,0.0
mp-1096625,SiTc2Ge,0.2361999999999997
mp-1095177,SiNi,0.0
mp-770701,Li2Si4NiO10,3.7537
mp-1078684,ErCdGa,0.0
mp-1027058,Te2MoWS2,0.0
mp-30788,SnMo3,0.0
mp-676038,Ga5(PS)3,1.3431000000000002
mp-4150,Ca(MnSb)2,0.0
mvc-16447,Zn(SnO2)2,0.8740999999999994
mp-24018,CaZnAsHO5,2.622
mp-755453,MnP4,0.0
mp-12948,NaMgF3,6.620699999999999
mp-22289,Mn2CoGe,0.00790000000000024
mp-1078635,ScGeOs,0.0
mp-1097680,Ca2MgZn,0.22379999999999967
mp-21290,HoInPt,0.0
mp-1027164,TeMoWSeS2,0.0
mvc-2417,AlW3Se2ClO8,1.4888
mp-556596,AlP3(HO2)6,5.4786
mp-1037668,YMg30TiO32,0.0
mvc-4378,TaVZn2O6,1.5040000000000004
mp-766617,V4OF11,1.5875
mp-1033679,RbHfMg6O7,0.0
mp-771328,Rb4PbO4,1.7342000000000002
mp-1018711,GdZnIn,0.0
mp-1094309,Sr3Mg,0.0
mp-707484,CuH2N2O7,0.20340000000000005
mp-861573,Li3Al2CrO6,3.7770000000000006
mp-7251,Ba2YNbO6,2.8514
mp-649492,V2PbO6,2.3433
mp-1027545,Te4Mo3W(SeS)2,0.0
mp-674514,In5CuS8,0.16140000000000046
mp-761384,K3MnCrO8,0.8097
mp-1029943,Ca3GaN3,0.8826
mp-565352,V2Ge(O2F)2,1.7969
mvc-4486,Sb2O5,0.05379999999999985
mp-1022089,Mg6CuSi,0.0
mp-22787,Fe2Si,0.02799999999999869
mp-975814,Mo3H,0.0
mvc-3460,YSbO3,1.4677999999999995
mp-1094911,Mg2Cd,0.0
mp-721035,CuH12(NO)6,0.0
mp-27827,Rb2TiCl6,2.1471
mp-1096744,Hf2TcIr,0.0
mp-13098,YN,0.0
mp-760798,Li2CuF5,0.8027000000000002
mp-5146,Zn(RhO2)2,0.9324
mp-624662,FeMoO4,0.8884999999999996
mp-755594,ZnReO4,0.0
mp-1094878,MgBi2,0.0
mp-770426,Ho(ClO4)3,5.0172
mp-865523,TiMnRh2,0.0
mp-865505,Lu2InAg,0.0
mp-974411,Re3Tc,0.0
mp-13236,Ho5Si3,0.0
mp-21816,Ho5(Ge5Rh2)2,0.0
mvc-12056,Sr9Zn3(CuO7)2,0.0
mp-33872,Na7Zr6F31,5.2616000000000005
mp-16313,TbSbPt,0.09810000000000052
mp-672264,WN18,1.7919
mp-571350,Ba(AsPd)2,0.0
mp-555623,BaMo2(PO4)3,0.0
mp-720897,ZnB8(H2N)4,0.0
mvc-11245,Zn(FeS2)2,0.0
mp-542883,SrYbSi4N7,0.0
mp-569331,Li(Sn3Pd)2,0.0
mp-569026,Nb10Se40I3,0.0
mp-6741,NaLa(PO3)4,5.095599999999999
mp-28382,K4ZnO3,1.6946
mp-1021464,H6PbCNCl3,2.8392
mp-28551,H8CN6,3.6266
mp-6204,Cs2NaScF6,6.7990999999999975
mp-697833,SrLaFeRuO6,0.0
mp-849353,Li3Mn4(BO3)4,0.0
mp-1067139,NF,0.0
mp-23667,RbP(HO2)2,5.2329
mp-19386,Sr3V2O8,3.676
mp-782631,Li2Cr(FeO3)2,0.7001
mp-775827,VCrO3,1.2588
mp-769391,Ba4ZrO6,3.1542000000000003
mp-20155,CoSn2,0.0
mp-867185,Pu3O2,0.0
mvc-14156,MgCuF5,0.0
mp-1098203,Mg6NbC,0.0
mp-1062554,SmCd2,0.0
mvc-14665,ZnSbF6,0.0
mp-1098328,RbMg6Sb,0.0
mp-779860,Li3MnV(PO4)3,0.4108000000000003
mp-21225,Pu(SiOs)2,0.0
mp-12637,Ba2NdNbO6,2.85
mp-690488,Co2TcO4,0.0
mp-767103,LiVSiO4,2.6307
mp-5396,MnCo2Sb,0.0
mp-19176,La2NiRuO6,0.009199999999999877
mp-1031942,YMg6CdO8,0.0
mp-674644,Bi2O3,0.6235999999999997
mp-571275,Cs2UHg2Se5,0.1322000000000001
mp-601326,Sr6Ge5N2,0.0
mp-3268,YbB2Ru3,0.0
mp-1078366,Bi2S2O,1.0006999999999993
mp-1071835,DyCu2,0.0
mvc-14516,Y(CuS2)3,0.057500000000000114
mp-556655,Li2AlBO4,4.864
mp-2339,Ti3Pt,0.0
mp-1074344,Mg4Si3,0.0
mp-849250,LiCrP3H8O13,2.1487
mp-10008,Ca7Ge,0.0
mvc-370,BaTl(NiO3)2,0.0
mp-755853,Hg(BiO3)2,0.0
mp-23872,Ca3Al2H6S(OF)8,5.7404
mp-773463,K2CoPCO7,0.9361
mp-8678,NaAlPO4F,5.676300000000001
mp-626566,Ti3H2O7,2.7106
mp-754128,Ba3Hf2O7,3.5653
mp-690772,V5S8,0.0
mp-686547,Al3H36C12N3F4,0.0
mp-14883,Ba4Zr3S10,0.4663000000000004
mp-761744,LiCoPO4,2.8761
mvc-11311,CaV2S5,0.0
mp-17668,YbGa7Au3,0.0
mp-680713,Ho(BO2)3,5.6139
mp-7598,NbAs2,0.027499999999999858
mp-1037,PrPt5,0.0
mp-777954,Li3Mn4F19,1.3967
mp-765418,Li4V2P4H3O16,0.5921000000000003
mvc-13241,Ba2Cr2CuF14,0.4193
mp-761808,Na3(WO3)4,0.0
mp-767180,Li2MnOF3,0.8163
mp-9957,V2GeC,0.0
mp-570141,Sm2(PPt2)3,0.0
mp-31381,Nb21S8,0.0
mp-772224,LiTi3MnCr(PO4)6,2.3445
mvc-3927,Ca3Si3(NiO6)2,0.07799999999999985
mp-1076992,UIrPt4,0.0
mp-684833,Na8Al6Si6O25,1.4543
mp-1927,Dy4Sb3,0.0
mp-769038,Li3NbS4,2.149
mp-1059612,LiN,0.0
mp-600156,H22RhC3(N3O4)2,3.2578
mp-644129,KNiPH2O5,4.0044
mp-1074849,Mg7Si4,0.0
mp-1027273,MoW3S8,1.2576
mp-1026493,Mg14TiSi,0.0
mp-767205,Li3Mn2F9,2.0418
mp-861149,Li3Ni2(PO3)7,4.0726
mp-1030236,TeMoWS3,0.0
mp-778817,Li4Mn3Nb3(TeO8)2,0.4788999999999994
mp-1026689,Mg14SiSb,0.0
mp-975468,RbAc3,0.0
mp-619126,Ba2TlCuHgO5,0.0
mp-907750,LiMnAs,0.0
mp-562679,FeSiO3,2.6283000000000003
mp-768033,LiNiPHO5,0.01709999999999989
mp-1025095,CeCo2B2C,0.0
mp-571569,CdI2,2.3601
mp-1095923,ScSiRu2,0.019400000000000084
mp-675326,Nb4IrSe10,0.0
mp-757336,Hf2N2O,2.0236
mp-631571,Bi2OsAu,0.0
mp-1013794,Na3Co2(GeO4)3,0.0
mp-1094772,CeMg2,0.0
mp-779098,Li3MnV(PO4)3,0.7543000000000002
mp-1096082,Li2HgPb,0.008300000000000196
mp-764044,Mn3OF5,0.24
mp-1087524,LiH2N,2.7715
mp-570277,Tb8CrTe13Cl,0.08360000000000056
mp-558992,In7GeIrO8,0.4081999999999999
mp-32312,Re2Ni(H2O3)4,3.7071
mp-558535,La10Se14O,1.5518999999999998
mp-542604,AsS,2.0899
mvc-6413,Ca(FeO2)2,0.9801999999999996
mp-22895,CuI,1.42
mvc-15195,Y4V6O21,0.5603
mvc-5448,Mg(AgO2)2,0.6908999999999998
mp-1018637,Tb(CuS)2,0.0
mp-18745,LaMnSbO,0.030999999999999694
mp-978526,Si(H3C)4,6.4988
mp-765060,Li2VCrP2(HO5)2,2.09
mp-618964,Ba5Fe4S11,0.04570000000000008
mp-972529,SmP3,0.0
mp-1036297,Mg14MnVO16,1.6471999999999998
mp-771998,Li4Y3FeO8,2.6585
mp-7534,K2Cd2O3,0.6527
mp-642740,CsLi(H2N)2,1.9969999999999999
mp-616439,Cs2CuCl4,0.3763
mp-676764,InCuSe2,0.0
mp-541158,Nb3SI7,0.5787
mp-983598,Ca2AgBi,0.055600000000000094
mp-13178,AlN,3.2676000000000007
mp-567458,Ho(PRu)2,0.0
mp-15257,Tb2Se3,0.3403999999999998
mp-764688,Li4CoO4,0.0
mp-1094300,SrMg2,0.0
mp-765394,LiNiPO4,3.2172
mp-16495,AlCrFe2,0.004299999999999749
mp-7716,SbTe,0.03479999999999972
mp-6059,Cs2KYF6,6.464
mp-6813,KCa10(PO4)7,5.2645
mp-15799,NbN,0.0
mp-3319,Mg(RhO2)2,1.0936000000000003
mp-565399,VCu2BiO6,0.07399999999999984
mp-2602,NdAs,0.0
mp-569626,MgCl2,3.379
mp-1077823,TeO2,1.4204000000000008
mp-752449,La2B4O9,4.4918999999999984
mp-29343,NaCu3F7,0.2119
mp-1040164,KHfMg30O31,0.6804999999999994
mp-2801,CeCu2,0.000300000000000189
mp-1097445,Be2CoOs,0.06210000000000005
mp-1063174,GdAu2,0.0
mp-1028622,Te4MoW3S4,0.03100000000000014
mp-780093,Fe3(O2F)2,0.0
mp-555975,NaH12C4S2BrO2,4.3026
mvc-13757,Mg(SnN)2,0.0
mvc-10007,LaCrTeO6,1.2581000000000009
mp-862671,ThF4,6.1267
mp-781706,LiFe6O7F5,1.8013
mp-2756,CeAg,0.008300000000000196
mp-570963,TaCr2,0.0
mp-641191,U2Tl2Mo3O16,2.3226
mvc-4921,Si2SbO6,0.0
mp-761046,Na3Ti2(PO4)3,0.0
mvc-16581,MgCr3(SO4)6,0.0
mp-777436,Li2MnVP2(O4F)2,0.08630000000000004
mp-30367,Ca5Au2,0.0
mp-15953,P2Rh,0.37049999999999983
mp-997084,RbAgO2,0.6655
mp-865892,Li2CaPb,0.0
mp-28121,La3ReO8,1.8545
mp-699314,Li2V(PO4)2,1.4504
mp-998745,TlZnF3,3.9139
mp-29459,Rb3Mo2Br9,0.9378
mp-850225,FeP6(WO8)3,2.0561000000000003
mp-756336,CaEu2O3,0.0
mp-851023,Li3Mn4(BO3)4,0.7007000000000001
mp-12736,TbB2Rh2C,0.0
mp-10860,CeNi2B2C,0.0
mp-631404,CrIrRu,0.0
mp-971914,SrSiPt,0.0
mp-541875,K3SnSe3,1.6275999999999995
mp-763596,Fe2C2O7,1.6809
mp-18822,Mn2PO4F,2.998
mp-1021709,Mg6VSn,0.0
mvc-14551,La2MgBiO6,0.0
mp-757777,LiSiBi3O7,2.9754000000000005
mp-756868,Rb3DyO3,1.9797
mp-769059,Li3NbS4,2.0684
mp-6049,Ba4Tb(RuO4)3,0.04059999999999997
mp-505296,Ce2MgSi2,0.0
mp-540820,Re(CO)5,2.9921
mp-762582,LiFe(PO3)3,3.4388000000000005
mp-631247,LiVTeO5,3.0595
mp-778713,Na2Ni2O5,1.2147
mp-721697,CsNa2H4Cl3O2,4.8749
mp-556000,ZnS,2.0282
mp-1026609,RbMg14Bi,0.0
mp-29216,Cs2PtCl4,2.0140000000000002
mp-1034985,RbMg14CoO16,0.0
mp-1026027,Te2Mo2W(SeS)2,0.3801999999999999
mp-768987,Li8BiO6,0.0
mvc-9746,Ca(SbO2)2,0.4072000000000005
mp-31797,Li3Fe3(PO4)4,2.2571
mp-759882,AgBH8C4(N2F)4,3.7801
mp-23297,BrF3,2.1576
mp-776418,CaGd2O4,2.9964
mp-1093987,La2MgIn,0.0
mp-685007,Tb5Te9,0.2134999999999998
mp-768129,Na2HoPCO7,4.5316
mp-698567,Cr(Bi7O12)2,2.018
mp-868760,Li3Ti2VO6,0.0
mp-862746,Sr2LiTl,0.0
mp-1028181,CaMg14Si,0.0
mp-1021416,CeMg6Ti,0.0
mp-1038363,HfMg30SbO32,0.06329999999999991
mp-24507,Na6Zn3P4H6O19,3.978
mp-625956,Co(HO)2,2.2614
mp-1072707,CaGe2,0.0
mp-1095181,N3Cl,2.3584
mp-649704,Ce9(Ni13P6)2,0.0
mp-34842,Na3UO4,0.17659999999999965
mp-999460,NaScS2,1.6789999999999998
mp-568659,CuH8C2(N6Cl)2,0.6377999999999999
mp-866649,NaSc(BH4)4,4.8658
mp-778064,Ga3NO3,0.9393
mvc-16566,CaMn2Be3(SiO4)3,3.8734
mp-1035993,YMg14TiO16,0.1872999999999987
mp-1099292,Mg6NiSb,0.0
mvc-9178,ZnCr3O7,0.0
mp-565513,FeBi3(MoO6)2,2.5911
mp-10293,BaC2,2.1132
mp-1028175,CaMg14Ti,0.0
mp-758291,Li3Sn3(PO4)4,0.0
mp-754541,TmTlO2,1.3081
mp-769941,DyWO4,2.1716
mp-567480,MnSbPt,0.0
mp-8424,Li8PrO6,0.0
mp-1097658,BaNa2Sr,0.5687999999999998
mp-22419,NdSnPd,0.06119999999999948
mp-1022658,SrMg6Zn,0.0
mp-675048,Sr3Nd4O9,3.1139
mvc-9191,ZnBiMoO5,1.4226
mp-622213,GeS2,2.1396
mp-654223,Mn11Ge8,0.0
mp-626165,NaH9O5,3.8286
mp-863900,LiNi(PO3)3,4.0023
mp-762989,Mn2O3F,0.0
mp-24985,SrFeP2O7,4.2713
mp-540304,LiMo(PO3)4,4.261699999999999
mp-720842,BaH8PtC4(NO)4,1.6378
mp-778285,Li4Mn3Cr3(CoO8)2,0.4669000000000003
mp-1096944,CsNbO3,1.2659000000000002
mp-622214,Cs2Co2(MoO4)3,2.6642
mp-28330,TeAuCl7,1.5353
mp-1019785,K2Si(S2O7)3,5.2762
mp-24041,MgH2SO5,5.5024
mp-570177,TeH20C6(NCl3)2,3.1535
mp-23719,BeAlH5,3.4609
mp-8700,K2Au3,0.0
mp-31202,Pr(SiAu)2,0.0
mp-569752,UPt,0.0
mp-30870,SmZn12,0.0
mp-862995,Er8Ga3Co,0.03950000000000031
mp-694953,LiMn4O8,0.0
mp-864780,PaAlAu2,0.0
mp-8871,CsNa2BO3,3.2483
mp-10347,CsCa2Ta3O10,2.1782000000000004
mp-643446,Ca2AlH8S2Cl(O6F)2,5.5831
mp-561710,CsSnS3,1.646
mp-1093909,SrCaMg2,0.20100000000000007
mvc-9007,LaTaFeO6,0.0
mp-1079793,PuAlCo,0.0
mp-19498,KCrPO4F,2.5013
mp-1095057,VCo3,0.0
mp-758886,LiCuPO4,0.0
mp-765451,Li3V4O5F7,1.1932999999999998
mp-581958,Nd13Cd58,0.0
mp-997042,TlCuO2,0.4258000000000002
mp-648264,Os6C17S2O17,1.8011
mp-530826,Mg7Al22O40,3.7842
mp-861736,LiSbPd2,0.0
mvc-6497,Mg(SnO2)2,1.1012000000000004
mp-6404,BaCa2(PN2)6,4.0726
mp-505418,CsDyI3,0.0
mp-744991,Mn4Si3AsHO13,2.2148000000000003
mp-7353,Hf3Cu8,0.02090000000000014
mp-863884,LiV2OF5,0.8006
mp-565503,Ni2Ag3O4,0.0
mp-769933,NiHgO2,0.7591999999999999
mp-39540,CrSiH12(OF)6,1.3853999999999995
mp-1243,Ga2O3,2.4019000000000004
mp-554002,Al(HO)3,4.996
mp-1097568,MgZrPt2,0.0
mp-557863,K2Ag4Pt3(NO2)12,1.8305
mp-24995,PrFeO3,1.5865
mp-998870,Br,0.0
mp-570552,CdI2,2.4064
mp-545712,LiUO3,0.41359999999999975
mp-972199,CsTbS2,2.2052000000000005
mp-674339,Tl6PbI10,1.2149
mp-14423,Ca(GaS2)2,2.9147000000000003
mp-1018049,LaN,1.7318999999999996
mp-1023507,Mg15Mn,0.0
mvc-902,CaV4O6,0.2776000000000005
mp-1093807,Be2CoRh,0.0
mp-29888,Er(ClO4)3,5.0118
mp-690578,Nb2SiTe4,0.0
mp-771168,Na2SiBiCO7,0.0
mp-10927,SrC2(SN)2,3.7833
mp-20162,InAgS2,0.1081999999999992
mp-8861,Rb2MgF4,6.2257
mp-972985,KPdO3,0.0
mp-568069,Ti2Bi,0.0
mp-676290,RbHS,1.3683999999999998
mp-1097417,Sc2InRu,0.0
mp-569877,Dy2InGe2,0.0
mp-1022134,LiMg6Cu,0.0
mp-10177,LaSb,0.025300000000001432
mp-510554,Nb12O29,0.0777000000000001
mp-1028214,SrCaMg14,0.0
mp-530165,Li13Ti22O48,0.0
mp-1176,TbTe,0.0
mp-767923,Li6W2O9,2.6091
mp-625152,AlHO2,5.546000000000001
mp-566607,Mn3O4,0.6925999999999997
mvc-4620,Mg3V2(Si2O7)2,1.9871
mp-555410,ZnS,2.0646000000000004
mp-1098934,Mg30SiNiO32,1.5945
mp-730691,CaU2Si2H12O17,1.9307
mp-780315,Li4Cr2Fe3O10,0.9619999999999996
mp-24741,ScH3NCl3,3.8496
mp-8837,Ba3Er2Cu2PtO10,0.4247000000000001
mp-558518,K(NiS)2,0.0
mp-715438,Fe3O4,1.1238000000000006
mp-705397,Li3Ni2(PO4)3,0.0
mp-984519,NaAsSe2,1.1886
mvc-7422,MgTiBiO5,0.0
mp-542932,LiFeAsO4,2.4736
mp-31535,LiCoP2O7,1.0375
mp-983458,Tl3Cl,0.0
mp-1097442,Li2AgAs,0.9126000000000004
mp-756281,TmAlO3,5.7744
mvc-14527,Pr(NiO3)2,0.08619999999999982
mp-849277,Li2CuP3(HO5)2,1.6397
mp-694972,Ce10Si10BrN17O9,0.0
mp-1094537,Mg5Sb,0.0
mp-1028116,CaMg14Mo,0.0
mp-865301,TmBr3,2.9866
mp-2620,DySi,0.0
mp-714972,V8O,0.0
mp-28420,SrH4O3,4.3444
mp-2192,BPt,0.0
mp-4079,Sc3AlC,0.0
mp-774173,Li8MnFe7(BO3)8,3.116
mp-998435,CsScBr3,0.0
mp-764291,Li6Mn5SbO12,0.1299999999999999
mp-771445,Li4Ti5VO12,0.0
mp-971853,Zn3B,0.0
mp-863879,TiCo3(PO4)4,0.2469000000000001
mp-4930,TiAl2O5,2.9468
mp-985298,Ce2HfS5,0.0
mp-19388,BaNi2(AsO4)2,2.8416
mp-9816,GeF4,5.5005000000000015
mp-1079409,Ca(NCl)2,1.5326
mp-557029,PtS4N3Cl,1.5035999999999998
mp-773279,Mn3Fe(PO4)4,0.40380000000000016
mp-566358,BaV(AsO4)2,2.4743000000000004
mvc-10048,MgMn2O4,0.0
mp-771196,Li8Mn12Ni4O31,0.8603000000000001
mp-866127,LuTaOs2,0.0
mvc-16729,Y(MnS2)2,0.0
mp-999203,ScC,0.0
mp-1096745,Y2CuOs,0.0
mp-1025069,PrSn2,0.0
mp-552089,Sr2Cu3O5,0.0
mp-570561,Dy2MgSi2,0.0
mp-1076718,Sr2Mn2O5,0.0
mp-22385,Np(Al2Fe)4,0.0
mp-865228,LiScPt2,0.0
mp-767497,Li9Ti7Nb5O30,0.0
mp-557492,LiLa5Ti8O24,2.0496
mp-19939,La(CoGe)2,0.0
mp-767681,Li8Cr(FeO4)3,0.0
mp-19475,LaCo(BO2)5,3.1183
mp-23363,NaAlCl4,5.1557
mp-766643,K4Fe2O7,0.0
mp-761821,LiCoPO4,2.9087000000000005
mp-29465,TaCl4,1.2222
mp-763406,Li2Co2(SiO3)3,2.6215
mp-31417,Nd3TaO7,3.4829
mp-763546,Mn(SbO3)2,0.0
mvc-15700,TeF6,4.4438
mp-1072275,CeSiNi,0.0
mp-28832,Mn5As4,0.0
mvc-7206,BaYCuAgO5,0.0
mp-1022474,CsMg6Ni,0.0
mp-5145,Ag3AsSe3,0.8452999999999999
mvc-8242,CaSn2O5,0.3491999999999997
mp-627119,VHO3,0.6363
mp-697284,KH3SO6,4.5855
mp-28862,Y6RuI10,0.0
mp-1025489,SmSi,0.0
mp-24232,H5CN3O4,3.5185
mp-690556,CaLaMnRuO6,0.4748999999999999
mp-770492,Li24Mn11CrO36,1.2313
mp-1031351,Mg6TiBiO8,0.0
mp-1094963,CeMg,0.0
mp-17275,SrY2O4,3.855
mp-780520,LiMn(SO4)2,0.2205999999999999
mp-415,IrN2,0.3178000000000001
mp-1095902,Y2ZnGa,0.0
mp-566093,MnSO3,3.8276
mp-764983,Li3VCr3O8,0.0
mp-6066,NaTaGeO5,3.35
mp-30443,Be17Ru3,0.0
mp-775074,Li4Fe3Sn3(TeO8)2,1.3026
mp-686016,KSn2F5,2.9857
mp-1076696,K2Cr2O5,0.5732999999999999
mp-632586,FeHO2,1.2334
mp-27342,Ge5F12,4.3696
mp-38901,Nd2SmS4,0.0