mpid,formula,gap pbe
mp-675274,Ce(CoP)2,0.0
mp-7131,PrTe,0.0
mp-18209,Pr2(ZnGe2)3,0.0
mp-30328,Ho6FeBi2,0.0
mp-672322,Eu3(B3Rh4)2,0.0
mvc-6411,Mg(AgO2)2,0.4927000000000002
mp-13603,CdB4O7,3.9877
mp-754534,Li2CeO3,2.3497000000000003
mp-753651,SrLa2Cl8,3.7179
mp-705061,UAg2(WO5)2,1.0358
mp-765264,Li9Mn4(BO3)8,0.6737
mp-772886,BaLa2Cl8,3.9733
mp-22885,XeF2,2.6861999999999995
mp-1059289,Cr,0.0
mp-566672,Ca9Fe(PO4)7,2.2467000000000006
mp-570403,TbCd3,0.0
mp-770645,Li8HfO6,3.9011
mp-998732,TlInCl3,0.0
mvc-16761,Mg(CoS2)2,0.08230000000000004
mvc-8041,Ca2Co3O8,0.04310000000000014
mp-777427,Li4Mn2V3Sn3O16,1.0476
mp-1098395,LiCeMg30O32,0.04190000000000005
mp-705415,BaNdNiSbO6,2.5993000000000004
mp-28629,Ta5B6,0.0
mp-568917,LaInAg2,0.0
mp-1096263,Ti2VRh,0.0
mp-30078,C3S8,1.7492
mp-759653,LiBi2PO6,2.7156
mp-866648,La(ZnAs)3,0.1761999999999997
mp-774120,Hg2W2O7,1.9725
mvc-680,YNi(WO4)2,0.9307
mp-705593,Al2NiO4,2.9234000000000013
mp-20866,GeRh,0.18489999999999984
mp-569051,MgH2,2.3531
mp-6952,RbYbF3,6.5181
mvc-16244,Mn3Al2(SiO4)3,3.5565000000000007
mp-32104,LiMo2(PO4)3,1.5785
mp-976357,Lu3Sn,0.0
mp-771990,Li4Cu3WO8,0.17200000000000015
mvc-5310,VO2,0.7595999999999998
mp-556844,CIClF4,2.6833
mp-1099871,La7SmNi6(AgO10)2,0.0
mp-675895,La3Fe2S7,0.0
mp-777244,Li2Ti2MnCr2(PO4)6,2.4354
mp-698301,ZnH6C2(SO3)2,3.7386
mp-1098887,KMg30CoO32,1.2702999999999998
mp-1079035,MnAsPd,0.0
mp-7238,NdBO3,4.6987
mp-568950,Na3AlH6,2.4589
mp-780893,Na6V2O7,0.9095999999999996
mp-767747,LiVSiO4,2.5729
mp-861936,LiPd3,0.0
mp-25720,VAg(HO2)2,2.0853
mp-774472,PrSO,1.4090000000000007
mp-21432,LaPb3,0.0
mp-35208,NdOF,5.2949
mp-767016,NbVO4,0.7427000000000001
mp-769925,TiCrO3,0.0
mp-19330,CaMoO4,3.5057
mp-745164,FeP3(HO5)2,2.9486
mp-8015,CsRuF6,1.3131
mp-3148,Dy(SiPt)2,0.0
mp-772052,CdSeO4,1.8471
mp-567744,SrBr2,4.4697000000000005
mp-38090,Fe2CuO4,0.022299999999999542
mp-14743,Ba3WN4,1.965
mp-984682,Ce2MgAl,0.0
mp-555403,K3WF6,2.6188
mp-767262,Li12Mn3FeP4(CO7)4,3.6464
mvc-5011,Ca2BiWO6,1.9657
mvc-9561,MgTi2O4,0.0
mp-754993,SbSeO5,0.0
mp-764416,Li4Mn2(PO4)3,0.0918000000000001
mp-1078242,YAlPd2,0.0
mp-1073130,Mg2Si3,0.0
mp-867817,LaTlAg2,0.0
mp-756648,LiNdO2,3.611
mp-12041,DySbPd,0.0
mp-777712,Mn3O5F,0.0
mp-849387,Cu6OF11,0.0
mp-556771,Nd2Si2O7,5.0399
mvc-10565,Ba2Mg3Tl2(CuO3)4,0.0
mp-761957,Li2Mn3CoO8,1.3741
mp-505067,Co2As2O7,2.0267
mp-770175,Li2Mn3FeO8,0.0
mvc-5182,Ca2AlCrO5,2.2706000000000004
mp-770005,Li5Cr2Cu3O10,0.17579999999999973
mp-754531,Al2O3,4.369999999999999
mp-30875,Ti2Sn,0.0
mp-758035,Li3Ti3(PO4)4,0.0
mp-561638,CoMoO4,1.7058999999999995
mp-555089,SrLi4Ca(SiO4)2,4.8295
mp-20707,Gd(CuO2)2,0.00820000000000043
mp-771686,NbCrO4,1.0398
mp-181,KGa3,0.21629999999999994
mp-29308,Na5Co2S5,0.0
mp-761602,Li3Fe(CoO3)2,0.5338000000000003
mp-1075030,Mg3Si4,0.0
mp-6146,LiNbZnO4,2.7777
mp-559747,La2Ti2SiO9,2.6201
mvc-10897,Ca2CoWO6,1.9243
mp-767122,Mn5SbO12,0.042100000000000026
mp-6525,NaSn2(PO4)3,3.3552
mp-776213,Hf2N2O,2.0318
mp-25677,BaEr2CoO5,1.9923999999999995
mp-766108,Ba3LiTi5(SbO7)3,2.3975
mp-556717,Tl3Ga9S13O2,2.2072
mp-757594,Os(OF2)2,1.9012
mp-581595,Pu13Zn58,0.0
mp-862609,ScReTc2,0.0
mp-28522,Gd2CBr,0.01869999999999994
mp-21069,YSiRu,0.0
mp-780428,Na4Bi2O5,2.6313
mvc-2104,ZnCr2O6,0.0
mp-19148,K2Mn2O3,0.8197999999999999
mp-853262,Fe10O9F11,1.2817999999999998
mp-865093,TiZnNi2,0.0
mp-1361,IrSe2,0.049999999999999815
mp-1039409,CaMg3,0.0
mvc-2261,AlCu3(MoO3)4,0.0
mp-17908,Ba2TiS4,2.0968
mp-642535,Cs4Sb14S23,1.3732999999999995
mvc-11600,TiO2,2.6271
mp-996955,HAuO2,1.263
mp-16335,Ti3FeS6,0.0
mp-567959,Sr11Ga4Sn3,0.0
mp-37331,Sr2Co2O5,0.02090000000000003
mp-8395,CaTiF5,0.2633000000000001
mp-975364,RbCuO3,0.0
mp-770488,CoPbO3,0.0
mp-21073,HoGeIr,0.0
mp-1037298,Mg30FeCuO32,0.3675999999999995
mp-20960,In2NiS4,0.0
mp-567729,La7C3I10,0.0
mp-770996,Cs2CeO3,1.8999
mp-863403,LiNbP2O7,0.2610000000000001
mp-1028015,YMg14Cr,0.0
mp-1029826,Li6OsN4,0.0
mp-581584,Cs2U(SiO4)2,2.2215000000000003
mp-680269,Er2Fe3Si5,0.0
mp-695133,CsMg4Al9(SiO4)9,4.0440000000000005
mp-569869,Sr(AlCl4)2,5.5134
mp-19375,CeCrSe2O,0.0
mp-707175,BeH6(NF2)2,7.2018
mp-566173,Ba3V2(PO5)3,1.6044999999999998
mp-13349,KUCuS3,0.0
mp-571453,K2SnCl6,2.6688
mp-7790,Ti2N,0.0
mp-632724,ReH8(NCl3)2,1.0107000000000002
mp-863893,Li4Ni(PO3)6,4.3492
mp-767255,Li10Cr(SiO5)2,0.8188
mp-765730,Li5Co7O3F13,1.804
mp-979282,TbU3,0.0
mp-1098654,Mg30NbAlO32,0.0
mp-638687,Ce2(SeO3)3,0.0
mp-1099136,Mg14MnBiO16,0.0
mp-770108,Na2NiCSO7,2.9745
mp-866204,Pm2SiHg,0.0
mp-16733,Sc2GaC,0.0
mp-1075127,Mg3Si4,0.0
mp-1007778,TlN,0.0
mp-760370,Bi6O5F8,2.9856000000000003
mp-1032234,Mg6FeBiO8,0.0
mp-31778,LiFe2(PO4)3,0.008899999999999991
mp-158,As,0.0
mvc-16101,Al4Bi2O9,2.7529000000000003
mp-24939,NaFeO2,2.0607999999999995
mp-554218,Ti4P6PbO24,2.7893
mp-721303,LiBeH5(NF2)2,5.6924
mp-7831,MgIn2O4,1.838
mp-675740,Ca(CeTe2)2,0.0
mvc-9664,PrZn(CoO3)2,0.0
mp-581303,NaCuPO4,0.4311999999999996
mp-699437,KP(HO2)2,4.786899999999998
mp-770204,Li5Fe2P2(CO7)2,1.207
mp-1022622,BaMg6Zn,0.0
mp-697671,Ba6Mg7H26,2.9720000000000004
mp-18993,LuVO4,2.9436
mp-12794,Al2Cu,0.0
mvc-5949,VZn2WO6,0.6469000000000005
mp-903,ZrCr2,0.0
mp-770656,Li4TiFe5O12,0.3354999999999999
mp-1094279,SrMg2,0.0
mp-1076337,Ba2Sr6Ti7MnO24,0.9444999999999996
mp-1080389,ZrTi2,0.0
mp-4817,CeAl5Ni2,0.0012999999999987464
mp-17123,Si2Os,1.0497999999999994
mp-20879,CaHgPb,0.0
mp-689442,InCu(WO4)2,0.6250999999999998
mp-3652,Ta9(FeS3)2,0.014899999999999913
mp-1007961,CrInCu2,0.0
mp-530850,Ta2CuO6,0.28489999999999993
mp-1036209,Mg14TiMnO16,0.39170000000000016
mp-669688,U3Ga5,0.0
mp-696193,NiH2(SN)4,0.9638999999999998
mp-624249,Zn(C2N3)2,4.7631
mp-11335,BeSe,0.0
mp-30300,Cs3As5O9,3.1356
mp-17850,K3NaTh2O6,3.6676
mp-555342,Na2CaSiO4,3.3361
mp-1095684,SrInPd,0.0
mp-1008555,AlCu3,0.0
mp-649524,K3Fe2(PO4)3,2.266
mp-864603,YbH2,2.9087
mp-568967,Ba5Ga5Sn,0.0
mp-569996,Tb2InGe2,0.0
mp-651724,Fe2Te2Ru2(CO)11,1.6949
mp-16502,Ho2Al,0.0
mp-774176,Li2V12O29,0.011499999999999844
mp-767363,Li3Mn2(FeO4)2,0.4755000000000002
mvc-4453,Al(SnO2)2,0.0
mp-853190,LiVGeO5,2.2119
mp-706231,NaSr9Fe5(MoO6)5,0.5036
mp-1097290,Cu2PdPt,0.0
mp-14648,NaZnPO4,3.854
mp-699243,La5MgRe3O16,0.09419999999999984
mp-781672,LiFeH8(SO6)2,2.3339
mp-770345,Li3V(BO3)2,2.0244
mp-25502,Cr(SiO3)2,0.5641
mp-25935,Li3Ti2(PO4)3,0.08980000000000032
mp-504677,SrPbF6,0.004800000000000026
mp-1021545,CeMg6Ti,0.0
mp-20412,InAs,0.0
mp-555595,KCu3S2ClO9,0.0
mp-997586,La7YAl8O24,3.6351
mp-3848,BaGe4O9,3.0551
mp-567299,KC2IN2,4.5211
mp-4950,KCaF3,6.1391
mp-1078943,FeHO2,1.005
mp-33985,Ba(InTe2)2,0.8650000000000002
mvc-9167,MgCo3O7,0.0
mp-1025129,TmSnGe,0.0
mp-21898,SrTbO3,0.0017000000000000348
mp-1078517,RbFeS2,0.0
mp-776817,LiFeF5,1.2092000000000005
mp-861950,Ca2SbAu,0.19599999999999973
mp-29440,CuMo3I7,1.5653
mp-1007693,HfOs3,0.0
mp-745208,DyFeH8C6(N3O2)2,2.6507
mp-557177,Li2Al(BO2)5,5.6317
mp-32449,VH2O3,1.8136
mp-1096720,MnCuPt2,0.0
mp-18222,Lu4Ge6Rh7,0.13680000000000006
mp-567264,SbMoOF9,3.6798
mp-774301,Li3Cr3(NiO6)2,0.8715999999999999
mp-695298,K22Nb13In11(PO5)24,2.5818
mp-29165,Li3Si3Ag2,0.0
mp-1018023,Mn3Sn,0.0
mp-978505,SmLuRu2,0.0
mp-13352,RbUCuS3,0.0
mp-1026560,SrMg14B,0.0
mp-559256,La4S3NCl3,2.9165
mvc-7963,NiAs2O7,0.4824
mp-20495,Na2CO3,3.1421
mp-561558,Ba2CuWO6,0.0
mp-13473,Sm(MnSi)2,0.0
mp-1074193,Mg4Si7,0.0
mp-10271,ZnCo3C,0.0
mp-28092,B20H26O,1.1026
mp-1079720,AgO,0.08009999999999984
mp-772867,La2Bi2O7,0.0
mp-1024067,Na2ZnS2,2.3053
mp-1079570,CeFeAsO,0.0
mp-1079290,C3IN,2.2446
mp-865229,Be2NiIr,0.0
mp-753842,YZr5O11,0.6757
mp-1009127,MgO,2.2549
mp-1075475,Mg5Si6,0.0
mp-568053,Tb4Ga12Pt,0.0
mp-1096140,La2IrRu,0.0
mp-764191,Li9V3P8O29,1.4196
mp-558967,K3Ta2S11,1.7459000000000002
mp-677095,Na2CaSn2(GeO4)3,2.3158000000000003
mp-1079888,TiSe,0.0
mp-849376,LiV2(PO4)3,1.3750000000000002
mp-12572,CaPd3C,0.0
mp-1023294,Mg6AlMo,0.0
mp-12283,Li5Tl2,0.03469999999999995
mp-691,SnSe,0.5159000000000002
mp-982558,HoGeO3,0.0
mp-1096622,Li2CaAl,0.0
mp-980084,Th(CuSn)2,0.0
mp-865565,CsSn3,0.0
mp-1096721,YZrTc2,0.0
mp-767726,Li2Fe2Si3O10,2.3253
mp-555824,SrMo2(AsO6)2,2.6928
mp-25104,La2NiIrO6,0.012099999999999334
mp-624214,Cs3Bi2I9,2.3423
mp-643056,MnBiO3,0.7650999999999994
mp-2987,Li2MgTl,0.0
mp-568189,Gd3CuGeSe7,0.7081
mp-2790,Ni12P5,0.0
mvc-10482,CaV2(CuO4)2,0.21660000000000013
mp-28661,Ba2Cu3P4,0.0
mp-27332,Cs3MnBr5,2.7134
mp-1017455,LaHfMg6,0.0
mp-624688,Ta2O5,2.4693000000000005
mp-566832,KMoP2O7,3.8588
mp-622640,V3O7,0.996
mp-1028246,Mg14AlGa,0.0
mp-1033099,Mg6AlCoO8,0.0
mvc-648,MnAl(WO4)2,0.0
mp-19680,RbLa(WO4)2,3.7897
mp-850503,NaCrH22N6(Cl2O)2,3.8302
mp-779415,Li6AlFeO6,2.6554
mp-780544,LiMn3CrO8,0.7275
mp-12885,BaAl2Sb2O7,3.4278
mp-14634,K2VAgSe4,1.0266
mp-26767,LiNb(PO3)4,0.05370000000000008
mp-2286,Li2Se,2.9746
mp-720294,AsH18N3O7,4.1735
mp-5046,BeSO4,6.9502
mp-768223,Cs2CeO3,2.2437000000000005
mp-24696,MgSb2(H4O3)6,3.2827
mp-504123,Li3Ni2(PO4)3,0.008000000000000007
mp-679997,CsAg2(B5O8)3,3.5836
mp-977,LuIn3,0.0
mp-865262,TmTaRu2,0.0
mp-579400,Y10W2O21,3.0939
mp-765351,Li2Sn4P4O15,2.8944
mp-763511,Li2P2WO8,2.7918000000000003
mp-28763,CaAsPd,0.16080000000000005
mp-1056955,AgN,0.0
mp-29009,Li2MgBr4,4.5262
mp-558281,SrCrF4,3.6107
mp-28818,RbCr5Se8,0.0035000000000002807
mp-6940,U2IrC2,0.0
mp-704542,GeW2C10(BrO5)2,2.1698
mp-766794,LiMn2O3F,0.5409000000000002
mp-1036104,Mg14MnCrO16,1.4760999999999995
mp-35730,BaUO3,0.002699999999999925
mp-620714,Ba2V3O9,1.5279000000000005
mp-3144,HoNbO4,3.5325
mp-30160,Si(CN2)2,4.247
mp-979437,YPaTc2,0.0
mp-862749,SmAlAg2,0.0
mp-20414,U7Te12,0.002100000000000436
mp-677016,Ca18Eu2P12(SO16)3,0.0
mp-569516,HfNi5,0.0
mp-1031707,CaMg6CdO8,1.7076000000000002
mp-1031681,Mg6NiBiO8,0.0
mvc-3048,Ba2Mg2Tl2Ni3O10,0.0
mp-1026525,Mg14NbB,0.0
mp-24953,DyFeO3,1.5602999999999998
mvc-402,Mg2MnNb2O8,2.6333999999999995
mp-555941,AlPO4,5.6712000000000025
mp-707836,Na3H6Ir,3.3028000000000004
mp-865788,TmPaTc2,0.0
mp-772677,LiFePO4,3.2872
mp-1008524,BeSe,0.4424999999999999
mp-7581,MoSe2,1.3611
mp-867831,DyMgRh2,0.0
mp-862556,ScSiPd2,0.0
mp-567918,Ba2Nd7Si11N23,0.6173000000000002
mp-770038,Li2VBO4,2.0451
mp-616710,CaMnF5,1.3294
mvc-10646,CaFe4O9,0.0
mp-684652,BeF2,6.800199999999999
mp-811,BaPt5,0.0
mp-1031776,Mg6VNiO8,0.04790000000000028
mp-777105,LiFeB2O5,2.0172
mp-669560,K4Eu(PS4)2,0.7541000000000002
mp-744629,CoH18C4N8(ClO)4,2.763
mp-764817,Li2Mg11(WO4)12,3.4156
mvc-5586,MgCoP2O7,2.9546
mp-906168,CeTe,0.0
mp-1033925,BaMg14BiO16,0.0
mp-8368,Pr3GaC,0.10930000000000016
mp-10410,Ba4Sm2Cd3S10,1.8926
mp-15955,Y(BC)2,0.0
mp-2156,TiS2,0.0
mp-695894,NdH12(NO5)3,3.2416
mp-867848,LaMgCd2,0.0
mp-694929,SrLaTa2(NO)3,1.0135000000000003
mp-764684,Mn3OF5,0.0
mp-21222,Sm2InGe2,0.0
mp-555230,Rb2YGa(SiO3)4,4.1384
mp-19836,Tb3TlC,0.0
mp-1035948,RbYMg14O16,0.9768
mp-541434,VH14SO11,2.5024
mp-998398,InSnBr3,1.1056
mp-18027,BaC10,0.18229999999999968
mp-861619,TiZnPt2,0.0
mp-1033846,BaMg14CO16,0.0
mp-707876,Ca3Be2P4(HO2)10,5.1849
mp-1030462,Te2Mo3W(SeS2)2,0.0
mp-687090,Hf(MoO4)2,3.2774
mp-769774,Rb3FeO3,1.9968
mp-1070275,Al3Tc2,0.0
mp-1033269,HfMg6CdO8,0.0
mp-41095,Na3Sr3AlP4,1.1233
mp-28983,Pd(PbBr3)2,1.1626000000000003
mp-771738,LiTiCrO4,1.6508999999999996
mp-767997,LiNiPO4,3.3747
mp-779243,Fe3(OF2)2,1.3245999999999998
mp-1074652,Mg2Si,0.0
mvc-8786,Ca(BiO2)4,0.022299999999999983
mp-985551,CeY3,0.0
mp-616173,Ce5NiGe2,0.0
mp-707931,H3Os4C12ClO12,2.5769
mvc-12366,MgTi4O8,0.0
mp-1018661,CePbAu,0.0
mp-771077,LiFeB2O5,2.5189000000000004
mp-4632,Sr3(PO4)2,5.4712
mp-705626,Mn2CuO4,0.0
mp-771261,Mn3FeO8,0.0
mp-1094849,MgGa,0.0
mp-23155,Ar,8.5108
mp-28698,Na4IrO4,0.44410000000000016
mp-865560,Y2AlZn,0.0
mp-571435,Hg2H10C3NCl5,2.8393
mvc-2838,MgVO2,0.4565000000000001
mp-29243,Ba3SnO,0.0
mp-279,LiIr,0.014499999999999956
mp-9259,Ba2Mg(BO3)2,4.532399999999999
mp-554265,ZrSCl6O,3.264
mp-1097345,MnVOs2,0.0
mvc-7447,ZnBiSbO5,1.3321999999999998
mp-1093996,ZnHC4O3,2.0917000000000003
mp-764254,V4O7F5,1.1344
mp-756427,Li5SbS4,1.3595000000000002
mp-770988,Na2CoPCO7,0.8388000000000001
mp-27455,YCl3,4.9301
mvc-14736,YWO3,2.5451999999999995
mp-549308,LiGeBO4,2.7311
mp-29309,Si2H6S,4.4871
mp-31495,AgTe2Au,0.0
mp-673024,LiSn4(PO4)3,3.7885
mp-1029490,Sr3B3N5,2.2444
mp-558944,Tl2Cu3(SeO3)6,0.28210000000000024
mp-14928,Sc2MnSe4,0.0
mp-781961,LiCrPH2O5,2.6737
mp-19097,FeBO3,1.7457000000000005
mp-865514,YSnAu2,0.0
mp-1026406,HfMg14Bi,0.0
mp-4783,BaPrO3,0.002299999999999969
mp-973815,Pa3Ta,0.0
mp-7983,Mg2SiO4,3.5361
mp-1070613,Sr(SbRu)2,0.0
mp-559643,Rb2Mn(PS3)2,1.1690999999999998
mp-1034825,Mg14CoBiO16,0.4737
mp-1095505,Ti3GeC2,0.0
mp-975612,GdEr3,0.0
mp-8772,ScB12,0.3153000000000006
mp-530728,Sc11Nb3O24,2.5343
mp-5158,KNO3,2.9158
mp-24876,Co3(BO3)2,2.1755
mp-1025165,Zr(VGa2)2,0.0
mp-779518,BaP4O11,5.2234
mp-20863,Sb2Pt2O7,0.5643000000000002
mp-21461,Rb2PbO3,1.236
mp-18562,Na2Si2Se5,2.4355
mp-568015,Na3ErV2O8,3.6248
mp-696136,Li10Sn(PO6)2,3.3917
mp-1097191,TiVRu2,0.0
mp-768452,Li5Bi2(BO3)4,0.0
mp-771529,Li4MnV3O8,0.9354999999999998
mp-1020717,Zn2SiO4,2.1159000000000003
mvc-8345,MgCo2O5,0.2816
mp-570259,MgCl2,5.5713
mp-22813,U2Ni2Sn,0.0
mp-774009,Li4V3P4O15,2.2443
mp-3469,ZrNi2Sb,0.0
mp-999265,RbYS2,2.3166
mp-1075263,Mg3Si4,0.0
mp-754903,Y(BO2)3,5.446999999999999
mp-773726,Na2LiMnPCO7,3.5033000000000003
mp-31727,Li3Cr2(PO4)3,2.8265
mp-753766,Ho6ReO12,0.035900000000000265
mvc-8767,Co(Si2O5)2,1.0566
mp-3922,AgSbS2,1.3685000000000005
mp-684537,Sb(PO3)5,0.0
mp-733929,P2H4PbO8,4.4499
mp-19702,Mn2Te3O8,2.5067000000000004
mp-974430,Re3Ir,0.0
mp-862665,AcGe3,0.0
mp-11239,ZrAg,0.0
mp-1069922,Mg(BrO)2,0.0
mp-767070,LiLa5Ti8O24,2.1172000000000004
mp-1077144,CdHgS4,0.0
mp-864966,MnSiRu2,0.0
mp-1093951,NbGaTc2,0.0
mp-774025,TiCr3(PO4)6,0.0
mp-645316,C7F3,1.4237999999999995
mvc-6205,Zn(NiO2)2,0.0
mp-775320,Li4V3O8,1.723
mp-1038045,CaMg30FeO32,3.874199999999999
mp-866461,Ce4MgRu,0.0
mp-971683,C3N4,2.1853
mp-1140,NdCu5,0.005399999999999849
mp-1029275,SrZrN2,1.2165999999999997
mp-866288,BeVCo2,0.0
mp-21025,Nd2Cu2O5,0.027899999999999814
mp-868653,CrCu(PO4)2,0.0
mp-685403,Tl3(V3S4)8,0.0
mp-557373,Cu2WS4,1.5543
mp-579666,Nd5Mo3O16,0.0
mp-1063245,Sr2Rh,0.0
mp-862723,ScTc2Mo,0.0
mp-558795,KMgPO4,4.5953
mp-752918,NaTi6O12,0.0
mp-1097410,AlCrOs2,0.0
mp-21464,CoReB,0.0
mp-765556,Li4Nb2Fe3Te3O16,2.1159000000000003
mp-1040138,LiMg30SiO32,0.39590000000000103
mp-865669,TiSiTc2,0.0
mp-743810,CsVZn(PO3)6,0.00439999999999996
mp-581707,ZrInAu2,0.0
mp-853158,Li2CoOF3,0.9458
mp-1999,Sb2O3,3.4076
mp-555096,PrS2,0.3433999999999999
mp-1642,Ta5N6,0.0
mp-973524,HoVB4,0.0
mp-865010,HfGaRu2,0.0
mp-355,Nd5Si4,0.0
mp-1039524,CeMg2,0.027899999999999814
mp-973343,Li2MgHg,0.0
mp-778765,Mn7Sn(PO4)12,0.001400000000000068
mp-574379,CsHg2,0.0
mp-675224,LaSb2Au,0.0
mp-1025222,ZnPd5Se,0.0
mvc-2854,Mg(BiO2)4,0.6780999999999997
mp-778338,Li4V2Co3Sn3O16,1.2133999999999996
mp-1100354,CaSnS3,1.7606999999999997
mp-755000,LiTiO2,0.0
mp-762426,LiNi2(CO4)2,0.26770000000000005
mp-985285,CoHg3,0.0
mp-767431,Na3SrPCO7,4.052899999999998
mvc-2967,Ba2TlFe2O7,0.0
mp-2593,AlNi3,0.02009999999999934
mp-555552,KNaSO4,5.0709
mp-867116,BeGaIr2,0.0
mp-567030,Na2MoSeO6,3.6489
mp-1069751,Pr2Os3,0.0
mp-761807,Cr3Co3(SbO8)2,0.0
mp-28301,OsBr4,0.004699999999999982
mp-559808,Cs3PO4,3.5723
mp-8582,Eu(PRh)2,0.0
mp-861930,LiPdAu2,0.0
mp-1029869,K15Mo7N19,1.2845
mp-23120,Cs2NaYCl6,5.0866
mp-1057320,NiHg,0.0
mp-33333,NaSbSe2,0.0
mp-1028120,CaMg14C,0.0
mp-761992,Li2Fe2(CO3)3,3.1623
mp-851288,Li7V3P8O29,0.7224999999999999
mp-540475,LiMnPO4,3.7598
mp-1026587,SrMg14Cr,0.0
mp-779949,Mn6O7F5,0.11129999999999997
mp-758492,LiSb3(PO5)2,2.8343
mp-1021677,Mg6TiSn,0.0
mp-1061023,RbB,0.0
mp-766115,LiCrO2,2.9621000000000004
mvc-331,Sr2TiAlCu2O7,0.0
mp-778703,Li4Mn3F10,2.9960000000000004
mp-972993,LiSmAu2,0.0
mp-764356,V2OF4,1.6564
mp-740718,AlH6N2Cl3,5.0335
mp-863764,TeBr2,0.6528999999999999
mp-1095926,LaYAu2,0.0
mp-9835,CoSb2,0.0
mp-1080545,ThAlCo,0.0
mp-566751,BaVOF4,2.7566
mp-1096546,ScGa2Os,0.0
mvc-13591,Ba3Y5(CoO5)3,0.9337
mp-13726,Na3SrLaZnSi6O17,4.799
mp-1026612,RbMg14Sb,0.0
mp-18217,K3AlSe3,2.3566
mp-1038009,SrCaMg30O32,4.431100000000002
mp-962069,LiAgTe,0.0
mp-1077928,Tm2Mo2C3,0.0
mp-37307,Na(WO3)2,0.002399999999999736
mvc-3246,Al2Cr2O7,0.0
mp-1038313,Mg30MnCuO32,3.1176000000000004
mp-652366,MoPb5O8,2.4222
mp-1096448,CaScTl2,0.0
mp-1068036,CrPbO3,0.0
mp-706455,As4S11(N6Cl7)2,1.2271999999999998
mp-1097497,CaSbRh2,0.0202
mp-971911,ZnN,0.0
mp-540742,NdTl(PO3)4,5.2239
mp-979712,DyYZn2,0.0
mp-978284,Na2P3HO9,5.2647
mp-759324,Yb(Bi3O5)4,0.0
mp-974795,Rb3Ti,0.0
mp-763171,Mn2VNi3(PO4)6,0.0
mp-775006,Mn2CrO6,0.5397999999999998
mp-850018,Li3Mn4(BO3)4,0.0
mp-672690,U2S3,0.0
mp-25976,Cu(PO3)2,0.027300000000000324
mp-1093856,MgTiZn2,0.0
mp-4300,Yb2Si2O7,0.0
mp-1079097,ErMgAg,0.0
mp-673683,Sn16P15,0.0
mp-865963,LiGaAg2,0.0
mp-777079,LiNiBO3,3.2764999999999995
mp-780977,Li4MnFe3(BO3)4,3.1115000000000004
mp-571306,Ca2Zn2CuP3,0.2726000000000006
mp-766653,V6PbO15,0.6193
mp-699496,K2Cd3H10S4O21,0.5061
mp-549490,KNb4O5F,0.0
mp-29643,CuAsSe2,0.3247
mp-567836,K2NaBP2,1.7743
mp-30206,CsClO4,5.444000000000001
mp-104,Sb,0.0
mp-684,BaS2,1.5760999999999998
mp-648363,SbP3C(NCl5)3,0.06569999999999998
mp-615064,Li2MoF6,2.3895
mp-28442,TlAs5S8,1.6904
mp-645340,Nd(BO2)3,5.254899999999999
mp-1095834,Mg2IrPt,0.0
mp-775197,Mn3Nb(PO4)4,0.12919999999999998
mvc-13578,Mg2V2(SiO4)3,1.7748000000000004
mp-850744,Fe3(SiO4)2,1.4125
mvc-5746,SbO2,1.0866999999999996
mvc-12078,CaNiP2O7,3.8717
mp-781897,Gd3NbO7,2.2338
mp-699041,Ca5Nd5Mn9CrO30,0.0
mp-1019787,K2NaZn(BO2)5,4.2332
mp-779989,Gd2P4O13,3.3476
mp-13546,Y2Ge2O7,3.771900000000002
mp-655078,K2ZnH12(SO7)2,2.4701
mp-776344,V2O5,2.7539
mp-1079101,PbS,1.2344
mp-19377,LiLa2MoO6,1.6301999999999994
mp-1094918,Ce2Mg,0.0
mp-646878,In4SnS4,1.1714000000000002
mp-867859,Sm2IrRu,0.0
mp-8683,K5As2Au,0.34650000000000003
mp-6397,Na2Ca(SO4)2,5.4777000000000005
mp-15780,MgPPt5,0.0
mp-770236,Li4Cr3GaO8,3.0346
mp-573614,EuCd2,0.0
mp-673848,Ce2Dy2O7,1.6279
mp-1021448,Mg6SnB,0.0
mp-770906,Li3Mn(BO3)2,1.3439
mp-600186,Cs2MnBr4,2.5604
mp-556647,Ba5Re3ClO15,2.5307
mp-24865,SmCoO3,0.6162999999999998
mp-679936,Er7C2I12N,1.1629999999999998
mp-655105,K2Pb(SO4)2,2.5256
mp-849598,CoO2,1.2606
mp-561112,Zn2SeCl2O3,4.0939000000000005
mp-995191,BaTiO3,0.0
mp-554546,Eu2SiO4,0.7010000000000005
mp-743838,Ba4La8Mn11SnO36,0.0
mp-669648,Ho6Mn23,0.0
mp-3664,NdTlS2,1.6441
mp-14214,Ba4SiP4,1.0893000000000002
mp-773506,Mn5Cu(PO4)6,0.0
mp-1028088,CeMg14Zr,0.0
mp-1008632,V2C,0.0
mp-773678,Na2LiFePCO7,3.6297
mp-570595,DySiRu2C,0.0
mp-973099,La2PdRu,0.0
mp-37430,Na4S2O5,2.2212
mp-1096858,Ba3TaNb4O15,0.0
mp-771347,Li11Ti4Fe9O32,0.018799999999999928
mp-581173,Cs10Si7O9,1.3593000000000002
mp-557379,P2H6C4N2Cl2O,2.9631
mp-24842,KCoO2,0.9921
mp-867330,Al2FeNi,0.0
mp-763328,Co4OF11,0.6344
mp-761814,LiCoPO4,2.5855
mp-504944,NaP(HO2)2,5.1356
mvc-10416,BaCaTiF7,0.2462
mp-581795,Er2Te4O11,3.2240999999999995
mp-1016619,Mg6CrCd,0.0
mp-997570,H6CIN,4.0743
mp-974464,ReH3,0.0
mp-861661,LiPr2Ru,0.0
mp-1098236,Mg6ZrC,0.0
mp-640312,K4In3Ge20,0.0
mp-757138,Li2Sn(PO3)4,4.0198
mvc-16046,Sr3MgMn2S2O5,0.0
mp-849996,Li3Mn2(P2O7)2,0.1108
mp-554351,SrHg2(ClO)2,1.6485
mp-643,ThO2,4.4187
mp-763030,LiMnF3,3.4187000000000003
mp-1095796,Sr2ZnHg,0.5856000000000001
mp-1035403,NaLiMg14O15,1.1791000000000005
mp-972526,SmSnAu2,0.0
mp-1026846,KMg14Mo,0.0
mp-559939,Ba(PO3)2,5.4349
mp-1094057,Si,0.0
mp-864793,NdAgAs2,0.0
mp-540415,LiMnP2O7,1.4240000000000002
mvc-6654,Mg(SbO2)2,1.6484
mp-761144,Na3LiSbP2O9,0.0030000000000001137
mp-1080069,TbSn3,0.0
mvc-853,YRe(WO4)2,0.0
mp-774708,ZnH12C3S4(N3O2)2,4.0889999999999995
mvc-8926,MgTiSb(PO4)3,1.213
mp-637637,CeRhC2,0.0
mp-974458,Re3F,0.0
mp-9033,Np(SiOs)2,0.0
mp-2856,Mn4Al11,0.0026999999999990365
mvc-8347,MgNi(GeO3)2,2.4504
mp-779813,Fe5O3F7,1.6788999999999998
mp-774123,Li2Mn3TeO8,0.0
mp-21365,InSbS3,1.4760999999999995
mp-560022,Ba9Nb2CN10O,1.7837999999999998
mp-22953,YbCuBi,0.0
mp-705747,Ti9Fe11O30,1.3130000000000002
mvc-16251,Al2CoO4,1.9934000000000005
mvc-2124,AlCo4(CuO4)3,0.3149999999999995
mp-570362,Sr5In3,0.0
mp-762570,Li3FeSi2O7,2.5116
mp-1027550,TeMo2SeS2,0.0
mp-776730,Li2FeF5,3.244
mp-1095715,CaLaRh2,0.0
mp-26550,Nb(PO3)4,0.17180000000000015
mp-775647,Li2Mn3SnO8,0.6080999999999999
mp-764801,Li2Cu5F12,0.0