mpid,formula,gap pbe
mp-20246,Mn4Ge6Ir7,0.02149999999999963
mp-30177,Y(Al2Cr)4,0.0
mp-30676,Zr3Ti2Ga3,0.0
mp-850072,Li3Mn4(BO3)4,0.0
mvc-1040,BaMn4O8,0.0
mp-613052,Eu2PBr,0.0
mp-623984,PbSO4,3.8567
mp-18547,NaGdGeO4,3.3712
mp-642655,K2GdF5,4.5118
mp-765059,Li2VCrP2(HO5)2,1.9831
mp-762770,LiMn5P3O13,2.9249
mp-1097112,BaNaTl2,0.003399999999999625
mp-5553,Nd(CoB)2,0.0
mp-628781,GeTe,0.0
mp-761538,LiMnPO4,3.5981
mp-12722,TbAlPd,0.0
mp-975921,HfRu3,0.0
mp-626303,MnHO2,0.7632000000000003
mp-779954,Li3MnOF3,2.3220000000000005
mp-4438,CaSnO3,2.3301
mp-776081,K2O,1.7461
mp-17336,NpCuSe2,0.02280000000000016
mp-22098,CePO4,0.11569999999999947
mp-24464,MgH4S2O9,4.2343
mp-611430,CrMoF6,2.6025
mp-2004,Cu10Sb3,0.0
mp-765058,Li2VCr(P2O7)2,2.1127
mp-4155,Ca2Nb2O7,1.4400000000000004
mp-1078895,Mn3Pd5,0.0
mp-780092,V6O5F19,2.041
mp-531119,Ta2Zn4O9,2.9024
mp-569517,C,4.5686
mp-973606,Nd2IrAu,0.0
mp-671855,KNbCl6,1.9232
mp-1075658,Mg5Si9,0.0
mp-781601,Mn8O13F3,0.0
mp-1029322,Te3MoWS,0.0
mp-1014345,Cr3N4,0.0
mvc-8321,MgCr4(CuO4)3,0.04079999999999995
mp-1095677,NpSb2,0.0
mp-777955,Li2Cr(PO3)4,3.491
mp-1028183,NaCaMg14,0.0
mp-619034,ZnSiO3,3.3917
mp-640391,Tm5NiPb3,0.0
mp-764511,Mn6OF11,0.0
mvc-1811,YTi4(CuO4)3,0.0
mp-1097336,VCr2Re,0.0
mp-4454,CeCo3B2,0.0
mp-20331,CuSbSe2,0.6351999999999993
mp-1097763,La2Ti2O5,0.0
mp-565395,Na4MoS3O14,2.7772
mp-1080712,LiSmSn2,0.0
mp-676473,Te6H6S(Cl13O2)2,2.7204
mp-1003315,LiMn4O8,0.1379999999999999
mp-762997,FeOF,0.9123
mp-1068715,EuGe3Ir,0.0
mp-7720,Ce2Ga10Ni,0.0
mp-779167,Li8Mn7Fe(BO3)8,2.9821000000000004
mp-28124,H8NF5,7.3713
mp-611623,U(CoP)2,0.0
mp-768016,Zn3Ni7O10,1.7523
mp-764173,Mn6O7F5,0.0
mp-1077287,EuOF,0.0
mp-705903,Li10Mn23O48,0.02220000000000022
mp-8311,Si3NiP4,0.3308
mp-1023925,WS2,1.6944
mp-764135,Li2VP2O7,2.9218999999999995
mp-1076157,Mg2Fe2O5,0.6219000000000001
mp-1077018,Sm2Sb,0.0
mp-1080693,Cs2Bi2Pd,0.5383
mp-1877,HoAl3,0.2769000000000004
mp-764619,Li5Fe8(BO3)8,1.4195
mvc-3152,Mn5Zn4(TeO6)3,0.2265000000000001
mp-773599,NaSb3O8,0.8921999999999999
mp-1009753,ScGe,0.0
mp-759345,LiTi(PO3)4,0.13959999999999972
mp-767526,Na3CuPCO7,0.1440999999999999
mp-1080646,Y(SiPt)2,0.0
mp-1036193,Mg14TiMnO16,0.3185000000000002
mp-686598,Ca8MgSi4(ClO8)2,0.8441000000000001
mp-720849,Na2H6PtC4N4O3,2.4515
mp-21710,CaGeAu,0.07979999999999965
mp-1008554,Al3V,0.0
mp-1093646,SnRh2Au,0.0
mp-554352,Ba2CuF6,0.0
mp-780215,LiVNiO4,3.0039999999999996
mp-971682,Si3N2,0.12220000000000032
mp-778357,Li4Cr7(PO4)6,2.1866000000000003
mp-554479,Ba3BPO7,3.3373
mp-776102,Na5Bi2P(CO4)4,0.15429999999999966
mp-568621,Mg8BRh4,0.0
mp-27310,Na4Sn3F10,3.5349
mp-27179,CsCrBr3,0.0
mp-770155,Li3V3(BO5)2,1.2932
mp-1096839,B4C,0.0
mp-1022049,Mg6CoSi,0.0
mp-770433,Ag11Hg9,0.0
mp-761287,Ca2WO5,3.0116
mp-779406,Mn7(P2O7)4,0.0
mp-767143,Li4Mn3O5F3,0.7021999999999999
mp-570097,Sr(Li2P)2,0.9758999999999998
mp-975812,PrSm3,0.0
mp-31256,U(SbO3)2,1.2887000000000004
mp-676552,Nd2Th8O19,2.7912
mp-5587,Ba2ZnS3,2.0205
mp-8146,SrPuO4,0.0
mp-1008631,VCoTe,0.0
mp-642881,Na6Mo11O36,2.6018
mp-865530,YThRu2,0.0
mp-21054,PrSnPd,0.0
mp-864699,NdRh3,0.0
mp-640848,SmMn4(CuO4)3,0.0
mp-775869,Li4Cr5SbO12,1.4181
mp-569983,Ni2PdSe2,0.0
mp-1014339,CrN2,0.0
mp-7634,Cu3As,0.0
mp-762021,LiNiPO4,3.6709000000000014
mp-645060,Ti2Co(PO5)2,2.5184
mp-558217,CsAg(NO3)2,2.6683
mp-743529,NaCoP3(H4O5)2,3.1353
mp-771527,Mn3FeNi2(PO4)6,0.0
mvc-10513,CaCr4O9,0.6465999999999998
mp-1018055,HfIr,0.0
mp-11764,HoSnPd,0.0
mp-767243,Li4Ti2Fe3Sb3O16,0.0
mp-23029,Cs3Sb2I9,1.8679
mp-1077234,Mg2Ru,0.0
mp-707955,Ru4C12N2O13,1.57
mp-1029923,Sr2CrN3,0.0
mvc-14571,TiZn2SbO6,0.0
mp-1078340,Ce(AlPd)2,0.0
mp-1025493,HoClO2,0.11850000000000005
mp-755615,Li3Ti4O8,0.0
mp-570019,CdI2,2.3549
mp-865006,Dy2MgAl,0.0
mp-999473,ZnN,0.0
mp-776788,Li2MnVP2(O4F)2,0.3185000000000002
mp-1096472,MgGaCu2,0.0
mp-6217,LaSc3(BO3)4,4.2334
mp-650619,Cs3Bi7Se12,0.6092999999999997
mvc-14011,Mg3Sb2O7,0.2144000000000004
mp-559482,Ti2Bi2O7,2.6108
mp-22877,VCl2,1.2510000000000003
mp-760419,Li2BiF5,4.0571
mp-707227,K5H3S5O14,3.6559
mp-27376,Rb6Si10O23,4.4706
mp-707020,H10S(NO)4,5.1317
mp-763363,LiPWO5,0.0
mp-1028306,LaMg14Sn,0.0
mp-684467,Rb2EuGa(SiO3)4,0.0
mvc-16792,Y(MnS2)2,0.0
mp-1080859,CeSe2,0.8991
mp-1026482,HfMg14Mo,0.0
mp-579582,Fe3B7IO13,3.2665
mvc-10583,CaMo3P3O13,1.1772000000000005
mp-674176,Li2PbO3,0.15359999999999996
mp-780756,Fe2O3F,0.0
mp-1075566,Mg5Si6,0.0
mp-542919,NaGe2(PO4)3,3.832
mp-768296,Ti3Bi2(PO4)6,2.3485
mp-555612,Sb4IrC5ClO5F22,2.9357
mp-765838,Fe(CoO3)2,0.0
mp-571197,CdI2,2.3796
mp-22587,Cd(InSe2)2,0.4579000000000004
mp-1038575,Mg30NbCO32,0.2058
mp-611331,Cs2MnF5,1.4666
mp-974920,Na,0.0
mp-23314,Pr4Bi3,0.0
mp-867282,Tb2IrRh,0.0
mp-619651,Cs3AlP2,0.9831000000000004
mp-985440,CrGa3P4,0.0
mp-22864,Bi2Pt,0.0
mp-762962,Li3V3P8O29,0.6566
mp-561913,Sr2Fe2S2OF2,1.904
mp-1094344,Mg2Ti,0.0
mvc-6052,Ca(SbO2)2,0.6259000000000006
mp-1096436,Tl2InSn,0.0
mp-675600,Hf6PbO18,0.0
mp-27580,Zn3(AsO3)2,3.5393
mp-771141,Dy2Cu2O5,0.07209999999999983
mp-22770,KCd(NO2)3,0.09299999999999996
mvc-1055,Ba2YCr3O8,0.0
mp-707838,Ca3Be2P4(HO2)10,5.3191000000000015
mp-1402,SmNi2,0.0
mp-766984,Li2Fe(Si2O5)3,0.33240000000000003
mp-29215,Te4P2O13,3.0667
mp-23084,BiPbClO2,2.068
mp-762716,Li2Fe3(SiO4)2,2.2296
mp-5625,Ag2SO4,1.3907
mp-555121,MgAs2S2(OF3)4,3.5807
mp-624406,CdI2,2.3339
mp-867047,CaSnS3,0.0
mp-1073575,MgSi2,0.0
mp-600198,TeH21C7(NCl2)3,3.0381
mvc-5939,Mg2TiWO6,1.6436000000000002
mp-1094096,Ni4O3,0.0
mp-569151,MnGaPt,0.0
mp-25037,PrMnO3,0.10040000000000047
mp-757745,Ba4In2O7,1.3670999999999998
mp-622083,BaMnFeF7,2.135
mp-1032015,Mg6TiZnO8,0.0
mp-763263,FeP4O11,3.5754
mp-1075948,Sr7CaTi5Mn3O24,0.0
mp-25016,NdMnAsO,0.08190000000000007
mp-760348,Li10Zn3(GeO4)4,2.7679
mp-1031160,LiMg6BO7,2.8088
mp-1009005,IrN,0.0
mp-771828,Dy2Zr2O7,4.0207
mvc-675,YSb(WO4)2,1.4032
mp-961724,ZrBiRh,0.0
mp-540837,CaV2O4,0.9624000000000006
mp-1009596,PdN,0.0
mp-615243,KCrF4,2.9227
mp-1097294,LiBe2Au,1.0827
mp-9523,Rb(ThSe3)2,1.0211
mp-1028140,YMg14Mn,0.0
mp-3084,Sc2Ni12P7,0.0
mp-861457,LiV2OF5,0.7683
mp-767249,Li4MnCo3(PO4)4,2.3728
mp-1028406,BaMg14Co,0.0
mp-555894,BaCo2(PO4)2,2.3069
mp-556127,MgH6(CO3)2,4.9673
mp-1027758,LiMg14Co,0.0
mp-1096080,Y2GaCu,0.12409999999999988
mp-556014,Li3Ga(BO3)2,4.1585
mp-756228,SrLaCl5,3.738
mp-715493,V4O7,1.0034999999999998
mp-755864,TiCu(PO4)2,0.2059000000000002
mp-775965,Fe3Cu2Sn(PO4)6,0.0
mp-924128,HfNiSn,0.3853999999999997
mvc-4425,MgSn2O5,1.0610999999999997
mp-3301,Dy(SiPd)2,0.0
mp-1006619,Sn3PO6,0.0
mp-13099,YN,2.075
mp-1093632,NaY2Pb,0.0
mp-1075532,Mg5Si6,0.0
mvc-583,BaCa(SbO2)4,0.14259999999999984
mp-866972,CoMoH2SeO7,2.3374
mp-695000,LiMg6Sc(SiO3)8,3.2111
mp-32492,LiV(PO3)4,2.2205
mp-604647,TiAs2,0.0
mp-1002226,ErAs,0.0
mp-5122,Na3AlP2,1.3462999999999998
mp-766860,LiMnF4,2.8769
mvc-12611,CaCr4O8,0.2596000000000003
mp-585400,LiFePO4,2.4496
mp-763763,Li4Cr3Fe2Co3O16,0.0
mp-557861,Li2CaTa2O7,2.1401
mp-17746,HfGePd,0.0
mp-976829,NaDy3,0.0
mp-556891,KFeF3,2.907
mp-768048,Li4VCr3O8,1.9197
mp-1095550,HoAsPt,0.0
mp-1023140,CeMg6Mn,0.0
mp-1028439,TeMoWSe2S,0.0
mp-585418,Fe(PO3)4,0.11010000000000007
mp-1064667,ZnSiP2,0.0
mp-754071,Pb2O3,0.13529999999999998
mp-560790,Cs2NaBiF6,5.021000000000001
mp-763947,V2O3F,1.1204999999999998
mp-1026795,LiMg14W,0.0
mp-1080061,Dy(SiPt)2,0.0
mp-1073794,MgSi,0.0
mp-555942,Er3SiSe2O10F,4.0849
mp-532423,Li18Fe5N12,0.0
mp-752645,Al2CuO4,0.0
mp-541954,Fe2P2H4O9,3.9526
mp-864926,HfPaTc2,0.0
mp-541112,ZrI4,2.0575
mp-755049,Li3Cu3(PO4)2,0.8020000000000005
mp-40519,Na3Sr7Ta3Ti7O30,1.7944000000000004
mp-850874,Cr19O48,0.0429
mp-771486,Li5FeO4,2.9148
mp-853198,V2Sn(PO4)3,0.0
mp-11277,ScBe5,0.0
mp-510173,PuGa4,0.000300000000000189
mp-738,Sb2Au,0.0
mp-550086,V2CuO6,0.3328
mp-863011,Na3H7Os,2.6299
mp-1097557,Be2ZnPt,0.2648999999999999
mp-752709,InBP2H5NO9,4.0683
mp-16461,Gd2Si2O7,2.8961
mp-772245,CrPtO2,0.0
mp-766609,Li3Fe8(BO3)8,1.3453
mp-695946,NiH16C4S4(N4Cl)2,0.5148000000000001
mp-989617,YWN3,1.4101999999999997
mp-1114,VP,0.0
mp-865860,Li2TmIn,0.0
mp-1098229,Mg6VC,0.0
mp-754524,CeTiO3,0.0
mp-3601,BaUS3,0.0
mp-866001,AlVRu2,0.0
mp-6622,BaNd2Ti3O10,1.946
mp-1094851,MgCd3,0.0
mp-558314,TaBi4ClO8,1.0065999999999995
mp-1071645,YInCu4,0.0
mp-560798,Ba3Dy2(PS4)4,2.3736000000000006
mp-866006,CaBi3,0.0
mp-1097475,Sr2AgBi,0.2328999999999999
mp-20184,USiRh,0.0
mp-10687,LiCdP,0.0
mp-14052,Ca3In2(SiO4)3,3.668
mp-40761,SrLaMnCoO6,0.014899999999999913
mp-754624,Al2O3,5.667699999999999
mp-14161,Sr4Al6SO16,4.3935
mp-778822,Mn2(SO4)3,0.11529999999999994
mp-20265,LiIn2Pt,0.0
mvc-12566,ZnNi2O5,0.0
mp-768093,VSO4F3,0.9283
mp-559068,Na2Pd(SeO4)2,1.596
mp-1094130,LiNO3,0.0
mp-849435,Mn3(O2F)2,0.0
mp-1079654,Sm2MnGa6,0.0
mvc-1178,BaSb4O7,1.2605
mp-772843,KSiPCO7,5.167999999999998
mp-770090,LiAlCoO3,2.1941
mp-740711,Cs3B6H12Se4Br,4.4933000000000005
mp-762217,Li2P4WO13,2.9841
mp-565471,K2Mn2(SO4)3,4.9422000000000015
mp-1039058,MgBi2,0.026699999999999943
mp-773611,Na2Ti3Cr(PO4)6,0.0
mp-771386,VBO4,2.6343
mp-1095610,ZrGePt,0.0
mp-1078492,Cr3PC,0.0
mp-565410,Tl4V5CdClO15,0.0
mp-772779,Ca(SeO3)2,2.911
mp-1037248,Mg30CdCuO32,0.28200000000000003
mp-979426,YHoRu2,0.0
mp-1037188,Mg30VCoO32,0.9867
mp-862936,PmMgAg2,0.0
mp-422,BeS,3.1453
mp-12187,Na2Mg2(Si2O5)3,4.410299999999999
mp-1071948,TmS2,0.0
mp-625762,Al(HO)3,4.7202
mp-754727,LiNiS2,0.0
mp-569246,Tl2HgGeTe4,0.08859999999999958
mp-5962,NaMgAs,0.9547999999999996
mp-981391,Hg3Ir,0.0
mp-565472,Te2MoCl4O,1.2228
mp-567122,Sm11Cd45,0.0
mp-5792,BaCuSn2,0.0
mp-862777,TmPaRu2,0.0
mp-770832,Li2BSeO4,2.3328
mp-853161,CoOF,0.0
mp-1026572,CsHfMg14,0.0
mp-23536,SbI3Cl8,1.1884
mp-780026,LiMn4(BO3)4,0.3433999999999999
mp-568790,Ca14GaAs11,0.5969000000000002
mp-31284,NaSn5,0.0
mp-777000,Li3V4CrO8,0.5800999999999998
mp-776495,LiFeF4,3.6927
mp-1035956,YMg14CrO16,0.31959999999999944
mp-1021777,Mg6GaNi,0.0
mp-767222,LiFe2(PO4)2,1.6011000000000002
mp-607454,AlC3(NCl2)3,2.5682
mp-849702,CrAgO4,1.4024
mp-1035597,Mg14CrFeO16,0.0
mp-1077904,CdPb2(ClO)2,2.6745
mp-754808,La2MgO4,2.4898
mp-2883,Sm2Sn2O7,2.6977
mp-645709,SnSO4,4.174099999999998
mp-1028053,SrMg14Mn,0.0
mp-746793,K2Mn7H18(C9O20)2,0.0
mp-849779,LiSi6BiO14,3.9631
mp-761812,LiCoPO4,3.1546000000000003
mp-610620,Rb5(CoO2)2,0.5010999999999999
mp-505561,Na2ZnP4(H4O5)4,4.893199999999998
mp-722278,BaSiP4(HO7)2,5.7483
mp-616748,BaDy2CoO5,1.8436
mp-1025585,Te4Mo(WSe)2,0.0524
mp-1028086,YMg14Zr,0.0
mvc-9831,Mg(SbO2)2,1.7496
mp-638813,CeErS3,0.0
mp-1095566,LaCo4B,0.0
mp-1028118,CaMg14B,0.0
mp-1007694,SnPO4F,2.6443000000000003
mvc-15035,Ca3Ga2(FeO5)2,0.15650000000000008
mp-769552,LiMgCr3Se2(SO6)4,2.4957000000000003
mp-755660,Lu3TaO7,3.3260000000000005
mp-33397,Cd(GaSe2)2,0.0
mp-776205,Hf2N2O,1.3758
mp-9665,K3BAs2,1.3130000000000002
mp-866167,GdCdAu2,0.0
mp-22230,BaPbO3,0.3054000000000001
mp-21606,TiMnSi2,0.0
mp-778982,Li4MnFe3(BO3)4,3.1295
mp-771216,Sr3(AsO4)2,3.3602000000000003
mp-30293,Sr2GeSe4,1.7283000000000002
mvc-5074,MgV2O4,1.5331
mp-768812,LiBiB2O5,3.0193
mp-760786,Li2Cu3F11,0.0
mp-3120,Tm2Cu2O5,0.5198999999999998
mp-608100,S,0.3093999999999999
mp-607785,Rb6LiNd11Se12(Cl4O9)4,3.1141
mp-706625,TeH5O6,0.4995
mp-26745,LiSbP2O7,3.3047000000000004
mp-565430,CsFe(SO4)2,2.6754
mp-1035435,LiMg14FeO16,1.9419000000000004
mp-12463,Ni(TePd)2,0.0
mp-972416,Tm3Lu,0.0
mp-556044,SiO2,0.0
mp-777147,Li4CrTe(WO6)2,0.0
mp-571468,Ho3CuSiSe7,1.5893000000000002
mp-743773,Na3Ca18Fe(PO4)14,2.2236
mp-540546,Er3Ni2,0.003599999999999603
mp-532315,Sr17(Ta5S21)2,1.7864000000000002
mp-542387,Na6TlSb4,0.007400000000000073
mp-778968,Rb3DyO3,2.1247
mp-680254,Yb7Cl15,0.0
mp-1022109,KMg6Ni,0.0
mp-4001,BaTaS3,0.0
mp-707929,LiBH2C4O9,3.3510000000000004
mp-982664,K3In,0.0
mp-1072474,TmSe2,0.0
mp-657234,K3TiCl6,0.0
mp-13243,ScU3Sb5,0.0
mvc-13644,MgSbO3,0.7576
mp-1076182,Sr6Ca2Mn5Fe3O20,0.0
mp-1093945,Ga2CoNi,0.0
mvc-9160,Ca(WO2)4,1.3844
mp-684010,K8Ti5P2(O4F11)2,3.1144
mp-754475,Tm2SeO2,1.9537
mp-1073316,MgSi2,0.0
mp-561413,Rb2Tb3AlF16,0.0
mp-574428,K2U(PSe3)3,0.11139999999999972
mp-770067,Li2CrCSO7,2.2892
mp-510243,Eu(BS2)2,0.9983000000000004
mp-504580,VCuO3,0.6943999999999999
mp-652195,Sr4Fe6O13,0.07939999999999969
mp-1028422,Te4Mo3WSe4,0.6334
mp-756156,Rb2ZrO3,3.5441
mp-1098667,Mg30MnSnO32,1.3613
mp-540668,BS2,2.5564
mp-1027472,Mo3W(SeS3)2,0.5839999999999996
mp-578953,YbZr6(PO4)9,0.0
mp-530194,Ca4Nb2O9,2.4271000000000003
mp-25724,V2(SO4)3,1.6729999999999998
mvc-12009,MgCr2F12,1.2395
mp-777056,MnP6(WO8)3,1.1344000000000003
mp-1018647,YbNiH3,0.0
mp-10983,ErVB4,0.0
mp-850888,LiV2P4(HO8)2,1.0149
mp-757899,Li3Sn2(PO4)3,2.1751
mp-762881,Li3Mn(PO4)2,0.0
mp-1074681,Mg2Si,0.0
mp-762844,Li4Fe2Si4O13,2.7804000000000006
mp-19704,Mg2Tl2(MoO4)3,3.8757
mp-1068212,Fe2O3,0.0
mp-706830,Li7Mn11O24,0.0
mp-1031505,KMg6AlO8,1.4715999999999996
mp-763552,Li2V5(PO4)4,2.5774
mp-1025158,K2PuO4,0.0
mp-22067,Ba2CuGe2O7,0.2856000000000001
mp-997525,Li4Co15O28,0.8614999999999999
mp-1007690,HgPt3,0.0
mp-19306,Fe3O4,0.013399999999999856
mp-569833,Zr2Ga,0.0
mp-865590,GdMgCd2,0.0
mp-1033841,HfMg14BO15,0.0
mp-1079566,FeCuSe2,0.0
mp-11098,YbMgPd,0.0
mp-1097474,NaCd2Pd,0.0
mp-1029354,MnZn2N3,0.0
mp-622620,ErNiSn,0.0
mp-18309,Ba2CdS3,2.0868
mp-1040168,KHfMg30O31,0.0
mp-849798,AgH36S8Br2(N3O4)3,3.1716
mp-22534,SrRuO3,0.002600000000000157
mp-764234,Li13Mn3Nb2O16,1.0313
mp-675759,Tm10Ti6O27,1.7110999999999996
mp-762695,Li4Ti3(FeO4)3,0.06979999999999986
mp-610958,BaFeF4,3.5374
mp-651406,MnInFe(CO)9,2.1453
mp-1073268,MgSi2,0.0
mp-765511,Li6VO5F,2.2589
mp-690091,Mn3Cu3O8,0.0
mp-653120,Mn(GaTe2)2,0.0
mp-991544,VRu,0.0
mp-850372,Li2MnFe(BO3)2,2.6835000000000004
mp-19694,LiSbWO6,2.1215
mp-761527,LiMnPO4,3.4354
mvc-4255,TaZn2CuO6,0.08369999999999989
mp-979942,Yb3V,0.0
mp-1009829,Be2Si,0.0
mp-574176,Ba(InAu)2,0.0
mp-540832,EuFeO3,0.08220000000000027
mp-754955,LuSiRu,0.0
mp-942700,LiNiSO4F,4.1658
mp-979964,YbH2ClO2,0.0
mp-757779,La5Ta22O62,0.0
mp-773182,Li4Cr3Sn5O16,0.0
mp-560443,AgHg2NO5,0.5517
mp-573109,Sm2Se5O13,3.6065
mp-765677,Li6V5SbO12,0.8316999999999997
mp-773049,K3LiNb6O15,0.0
mp-989402,Sr6In2NF,0.0
mp-510007,KPuP2S7,0.12919999999999998
mp-10740,Pa,0.0
mp-569744,UAl2,0.0
mp-773956,Na2Li(NiO2)3,0.9474
mp-862802,CsNpCuS3,0.0
mp-555276,Sm2US5,0.0
mp-23611,BaTa2Bi2O9,2.1452
mvc-8038,MgTi(GeO3)2,1.8319999999999999
mp-567527,Eu(Al10V)2,0.0
mp-585949,CaCu,0.0
mp-568422,NaAg(CN)2,2.9395
mp-1094112,NbOF3,4.2237
mp-696457,ScP3(HO2)6,5.3068
mp-12097,Sm(SiIr)2,0.0
mp-1097591,Mg2InAg,0.04320000000000013
mp-567169,BaMo2(PO4)4,2.7048000000000005
mp-1028026,Mg14ZnMo,0.0
mp-1018638,Tb3AlN,0.0
mp-849344,Li2Cr(CO3)3,0.019500000000000003
mp-1022642,Mg6ZnSb,0.0
mp-554602,Rb2PdN2(ClO2)2,1.6980000000000002
mp-1037964,CaMg30ZnO32,4.3903
mp-1100149,CsRbMg6,0.0
mp-776823,La2Nb2N2O5,1.5686
mp-8860,Na3As,0.11930000000000016
mp-8236,Ba(PPd)2,0.0
mp-1075456,Mg3Si4,0.0
mp-973694,H8PdC2NCl3,1.4783000000000002
mp-358,HgTe,0.4762
mp-1034712,BaSrMg14O16,0.5862999999999996
mp-761437,FeBi25O39,2.2279
mp-13501,ErCoC2,0.0
mp-768045,V5BiO10,0.5003000000000002
mp-1093788,Mg2AgPd,0.0
mp-1097169,MgCdPd2,0.6212999999999997
mp-28746,Pr3RuI3,0.02059999999999995
mp-617312,Sm3Si2Ni,0.0
mp-762700,Li2Ti2Fe3O10,0.2329999999999999
mp-672950,Sb(PO3)4,0.026699999999999943
mp-672348,KAu(CN)2,2.9012
mp-759743,Sb5O7F,3.1066
mp-367,Sm4Sb3,0.0
mp-776887,Fe3NiSn2(PO4)6,0.0585
mp-1094469,Mg2Zn,0.0
mp-977437,HoZrOs2,0.0
mp-557249,K2UCu3S5,0.0
mp-1021483,CsMg6Sn,0.0
mp-997394,NbAgF6,2.8553
mp-770959,Ba3GeO5,2.6900000000000004
mvc-8355,CaCo(GeO3)2,1.935
mp-504747,V2Cu3O8,0.0040000000000000036
mp-560348,K6Nb4S25,1.5194
mp-1023365,Mg6AlC,0.0
mp-765623,V3O5F3,1.0141999999999998
mp-1026836,KHfMg14,0.0
mp-703550,LiZnPH2O5,4.1982
mp-557466,BiF3,3.9562
mp-767927,Li4TiV4Cr4O18,1.318
mp-1017110,HfMg6Ga,0.0
mp-1017579,In2Au3,0.0
mp-705746,Ti3Fe5O12,1.2111999999999998
mp-770980,Li4TiMn(WO6)2,1.1055
mp-640286,CeCu4Sn,0.0
mp-540771,BaZrS3,0.9971
mp-561232,NaSm(PS3)2,2.793
mp-10228,NbSe2,0.0
mp-554018,Mg3BeAl8O16,5.240499999999999
mp-24165,Li2H2SeO5,3.9952
mp-580113,Dy(Zn10Ru)2,0.0
mp-569302,Gd(SiRu)2,0.0
mp-1008642,UC2,0.0
mvc-13436,Mg(CrN)2,0.0
mp-38257,Na3(WO3)4,0.02800000000000047
mp-1016628,Mg6MoW,0.0
mp-1079461,Ag2IOF,0.04780000000000007
mp-1026834,KMg14Sb,0.0
mp-1021399,Mg6NbSn,0.0
mp-775565,Li4Nb2V3Cu3O16,0.04879999999999996
mp-18148,K3TaS4,2.7558
mvc-9372,Y4Cu13Si2(SbO14)2,0.0
mvc-11983,Al5(FeO4)3,1.1521
mp-383,Rb2Te,1.3732
mp-2183,ThSe,0.0
mp-10461,NaSr3SbO6,3.2614
mp-634855,InAgS2,1.21
mp-690597,Cr2FeO4,0.4327000000000001
mp-763941,Mn6OF11,0.0
mp-600125,HfInCu2,0.0
mp-761598,Li4Mn2Si3O10,3.0154000000000005
mvc-16463,VZn2P2O9,2.8577
mp-868608,FeOF,1.2988
mp-22010,Ta2CuO6,0.04479999999999995
mp-1001837,MoP,0.0
mp-1095825,Al2FePt,0.0
mp-6972,YCuO2,2.6307
mp-579161,Li11La12Fe3O28,2.3348000000000004
mp-1098519,RbMg30CO32,0.2407000000000004
mp-35651,La2USe4,0.004899999999999238
mp-555212,Ba2InBrO3,1.8283000000000005
mp-20135,Na2Ca2Ta3O10,0.0
mp-752692,K2SnO2,1.5380999999999998
mvc-14219,Zn2Mo3O8,1.0863
mp-762531,Li2Ti2V5O12,0.8546999999999998
mvc-12020,CaMnSi2O7,0.5682
mp-865320,Lu2PdRu,0.0
mp-1096145,Y2ZnTc,0.0
mp-1031907,YMg6NbO8,0.0
mvc-4864,ZnCoO2,0.3380000000000001
mp-999376,NbPt,0.0
mp-27790,BaTi5O11,2.6952000000000003
mp-1016643,Mg6MoC,0.0
mp-567573,Rb2UBr6,0.0
mp-555746,InAg3(PO4)2,1.2178
mp-768068,Li2MnFe3O8,0.0
mp-12807,KAlO2,3.7538
mp-16066,Yb(Ni2P)2,0.0
mp-763708,Li2TiV2O6,1.2730999999999997
mp-567974,Ca3SiBr2,0.0
mp-17100,In2P2O7,3.6658
mp-763213,FeOF,1.6225
mp-1095969,MnNb2Cr,0.14970000000000014
mp-755543,HoHO2,4.7573
mp-693763,Al8P8H34N7O36F5,4.8724
mvc-7604,CaTa2CoO7,2.6655
mp-1037951,CaMg30CdO32,3.8751
mp-567145,Ba2Co2ClF7,2.6528
mp-1085,UOs2,0.0
mp-1094385,MgTi,0.0
mp-770087,LiAlNiO3,3.0139
mp-775338,V3Cu2Ni(PO4)6,0.0
mp-792971,Li2MnVP2(O4F)2,0.0
mp-721301,H4CS(NO)3,3.3221000000000003
mp-568862,OsN2,0.0
mp-8192,Rb2PtF6,2.4463
mp-1018886,PdO2,0.0
mp-849244,Li2FeOF3,1.9779
mp-565952,Ba3Fe2Cl2O5,2.4379
mp-1024998,ScCoSi,0.0
mp-504383,Li7Mo4P9O32,3.8605
mp-866111,Ho2IrRu,0.0
mp-765336,LiVOF2,1.0644000000000002
mp-31712,LiCr(PO3)3,2.9342
mvc-10438,BaBiF7,0.366
mp-769803,Li2CrO4,2.502
mp-690095,CrSbO4,0.8623000000000003
mp-11958,CaSn2Pd,0.0
mp-22964,PbClF,3.4652
mp-735530,Ba2Fe3P6HO22,2.5383
mp-1034699,RbMg14SiO16,0.0
mp-562394,Cs4Li2(Si2O5)3,4.408
mp-770786,Li3Ni(BO3)2,0.01849999999999996
mp-557857,SrLi2Nb2O7,1.6613
mp-1022624,Mg6ZnCo,0.0
mp-11638,Eu3(Cu2Sn)4,0.005300000000000082
mp-1099600,Sr2Ca6Co7CuO24,0.0
mp-569979,ZrRu2,0.0
mp-675095,NbAgO2,0.0
mp-10103,LiYbAlF6,7.689999999999999
mp-554146,K14In4O13,1.8378
mp-775544,Ni3Sb(PO4)4,0.0010999999999996568
mp-35799,Hf2Bi2O7,2.7787
mp-37263,Ca(NdTe2)2,1.0995999999999997
mp-639978,UMnO4,0.9722
mp-9993,Al2CdS4,2.4641
mp-30834,SrSn3Pd,0.0
mp-675758,Sr2LaF7,4.8865
mp-778696,Fe6O5F7,1.0713
mp-1095956,YAgAu2,0.15050000000000008
mvc-5007,ZnSi2SnO6,3.1413999999999995
mp-559309,K3ZnNCl4O3,3.3079
mp-548403,CaCO3,5.717699999999999
mp-30434,BaTl2,0.0
mp-984598,AuS,0.0
mp-582759,Ti6Ni16Ge7,0.0
mp-34150,SiO2,1.0638
mp-601226,BaH2(CO2)2,4.1704
mp-1029336,KZnN,0.5486999999999999
mp-690161,Li9Mn20O40,0.4996
mp-999133,TaPd,0.0
mp-568730,Ge4Te7As2,0.2182000000000004
mp-21801,Rb4PbO3,2.2282
mp-569446,NiPb,0.0
mp-540078,LiNi(PO3)4,0.6535000000000001
mp-1095971,Sr2MgIn,0.0
mp-1009751,ScC,0.0
mp-530379,Tb2TiO5,2.4300000000000006
mp-28348,Ba2As2Se5,1.0236999999999998
mp-767229,Li2VSiO4,1.5185000000000004
mp-1094048,Sr2TiFeO6,0.0
mp-23739,SiH4,6.562100000000001
mp-560611,HoCuS2,1.6603
mp-555006,CsGa2P5O16,4.6362
mp-1001011,TaO3,0.0
mp-15013,RbBS2,2.8271
mp-7483,KHgF3,0.6158999999999999
mp-778917,Li2CoP2O7,3.1084000000000005
mp-743891,K2MnH4(SO5)2,4.2109
mp-1073061,Mg2Si3,0.0
mp-540731,MgB4(H9O8)2,5.2211
mp-778790,NaV5O8,1.3228
mp-1026380,KNaMg14,0.0
mp-560316,Hg3SO6,0.5529
mp-759568,LiBiP2O7,3.8072
mp-764088,Li6Co2OF11,0.9772
mp-568552,LuNi4Sn,0.0
mp-773466,NaCu3O4,0.0
mp-779754,Na5Ni2As(CO4)4,0.0
mp-10534,Sm10S19,0.4965000000000002
mp-686583,Na5Zr4Si3(PO8)3,4.1737
mp-18373,ZnSe2O5,3.2132999999999994
mp-1025876,Te2Mo3Se4,0.0
mp-3106,Np(SiRu)2,0.0
mp-18999,NaMn7O12,0.0
mp-1017057,Mg6BW,0.0
mp-705153,K4CoMo4O15,0.0
mvc-5150,MgWO2,0.4589999999999996
mp-859876,Ge2N2O,2.3279
mp-1019100,SmFeSi,0.0
mp-770004,Ni5(TeO6)2,0.375
mp-29895,Rb3Bi2I9,2.4194