mpid,formula,gap pbe
mp-1076222,KNa7V7MoO24,0.0
mp-976272,LiCa3,0.0
mp-962071,MgScTl,0.0
mp-753815,CaY2O4,4.1546
mp-1075664,Mg5Si9,0.0
mp-690534,K3FeF3,0.8191000000000002
mp-566590,MoP(Cl3O)2,2.6452
mp-708994,SbH32C8N4Cl7,3.5129
mp-19544,RbMn4(AsO4)3,1.9685
mp-568488,Mo15Se19,0.0
mp-1080364,CeSe2,0.7516000000000003
mp-1062353,HoSb2,0.0
mp-753363,Li4Sb(TeO4)3,0.0
mp-865895,GaGeRu2,0.0
mp-570185,Ba38Na58Li26N,0.030500000000000194
mp-775402,Li4(NiO2)7,0.3752999999999997
mp-720283,K2H6PtC4N4O3,1.8723
mp-1078499,Er3(CoGe2)2,0.0
mp-12581,CdTe,0.0
mp-762419,Li4Mn7O12,0.2589999999999999
mp-32089,Mo3(PO4)4,1.1783
mp-1018122,Tm,0.0
mp-1073208,Mg2Si3,0.0
mp-39167,CaScAlSiO6,4.8888
mp-744674,KVH4O7,2.7133
mp-1077263,TiS2,0.0
mp-733822,ScRe4H8NO20,0.0
mp-622508,GdSi2Rh3,0.0
mp-1097436,YZrAu2,0.0
mp-625652,H9BrO4,3.6496
mp-10261,TiNi2Sb,0.0
mp-779894,Fe6O7F5,0.0
mp-1033909,HfMg14BO15,0.0
mp-1096987,FeCo9,0.0
mp-20082,Yb(As2Rh3)2,0.0907
mp-684944,In2S3,0.4851000000000001
mp-780443,Li8MnFe7(BO3)8,3.0651
mp-557912,Cs2MnF6,3.2382
mp-1093637,YTlPd2,0.1452
mvc-7948,MgNiBiO5,0.0
mp-8137,NpSO,0.0
mp-633207,NiH8(IO5)2,3.6538
mp-31182,ErAl2Ni,0.03230000000000022
mp-976751,Nd3Zr,0.0
mp-766359,BaCaI4,3.4196000000000004
mp-764153,Li2CrP2O7,2.3913
mp-762958,Li6MnNi7O16,0.3199000000000001
mp-7715,AgF2,0.0
mp-777396,Li2Mn3FeO8,0.8681000000000001
mp-21475,SmInCu2,0.0
mp-775206,VSb3(PO4)6,0.0
mvc-824,Sr2YMnCu2O7,0.0
mp-1023918,AlSb,0.0
mp-782703,V4OF11,1.5199
mp-1099221,CsMg6BO7,0.9356
mp-761893,Li2Cu3F7,0.0
mp-4171,DySi2Ni,0.0
mp-654249,Na2FeCuF7,0.2397
mp-569059,HfI4,2.3528
mp-554831,Yb4Cl6O,5.176
mp-764405,KFeH2S2O9,2.1671
mp-669391,Ca4Zn2Cu3P5,0.0
mp-643788,Na2Sn(HO)6,3.2562
mp-743984,Li3Cr13Ni3(SO4)24,2.2487
mp-1167,CF4,9.0612
mp-560521,Be(PO3)2,5.8411
mp-1077140,Zr2TaN3,0.0
mp-865843,YbNdZn2,0.0
mp-510253,Dy2(WO4)3,4.0894
mp-10020,ScC,0.0
mp-3474,LaCuO3,0.0
mp-1031808,Mg6SiNiO8,0.0
mp-540180,Cr3(P2O7)2,0.6492
mp-8132,Li(TiSe2)3,0.0
mp-1080855,CeSe2,0.9895999999999998
mp-982739,TmHfCo2,0.0
mp-1095137,UFeC2,0.0
mp-772180,LuScO3,3.0863
mp-568228,RbLaSi(CN2)4,3.8549
mp-5447,Sm3OsO7,0.2165000000000004
mp-662609,Ce3(Si3Pd10)2,0.0
mp-763054,Fe2OF3,1.4915
mp-505397,K2PuCl6,0.362
mp-1040359,Mg30TiBiO32,0.04039999999999999
mp-22248,Eu(BO2)3,0.02479999999999993
mp-13567,CeS2,0.0
mp-1094642,Mg2Ga,0.0
mp-10838,NaYb(PS3)2,1.696
mp-868425,Li5Fe(P2O7)2,2.0377
mp-29250,Li6VCl8,1.5739999999999998
mvc-10451,MgCr4O9,0.5161000000000002
mp-1035394,NaLiMg14O15,1.3890999999999996
mp-773513,Er2(WO4)3,3.917100000000002
mp-1025266,Tb2Cr2C3,0.0
mvc-5777,Mg2CrIrO6,0.0
mp-18043,Sr6YSc(BO3)6,4.4962
mp-1075515,Mg5Si6,0.0
mp-763538,LiV4(PO4)3,1.9653
mp-542112,CaZrO3,3.2155
mp-643575,CoH12(BrO7)2,1.9233
mp-568400,Sc(AlC)3,0.10930000000000016
mp-1094079,PAuS,0.7570000000000006
mp-29996,La3PI3,0.0
mp-31602,LiCo2(PO4)3,0.0017999999999999683
mp-8537,S(OF)2,5.8812
mp-766903,Li2MnF6,2.8175
mp-690546,TiNiO3,2.2505
mp-674509,W43N38,0.0
mp-8150,Ba(CdSb)2,0.0
mp-861943,BPt3,0.0
mp-1030146,MoWSeS3,0.5496000000000003
mp-559118,CsTa(PO4)2,3.39
mp-566781,LiFe(MoO4)2,2.4998
mp-542071,Co(NO3)2,1.3255
mp-545512,CaO,3.1206
mp-771942,Li3Mn5O8,0.0
mp-557118,SiO2,5.4995
mp-1094176,LaMg2,0.0
mp-850238,V9O22,0.0
mp-570400,Ba7Al10,0.0
mp-764221,Cr2OF2,2.2239
mp-4974,La2Zr2O7,3.7409
mp-1025418,LaTe3,0.0
mvc-4989,Mn2ZnO4,0.0
mp-556874,La6Mo8O33,3.2255000000000003
mp-22307,ScSi2Rh,0.0
mp-984050,BiH3,0.0
mp-759894,Bi7(O2F3)3,2.6676999999999995
mp-11914,NaLa2IrO6,0.0
mp-753298,PrYO2,0.0
mp-510464,Ce(IO3)3,0.08059999999999956
mp-2616,NpO2,0.0
mp-769723,Li2MnCo(PO4)2,2.4609
mp-571420,Ba(NiP2)2,0.0
mp-767709,Li2Mn3Si3O10,2.5783
mp-566157,BaFeCuF7,0.2305999999999999
mp-699475,CaB12(H3O2)4,0.15670000000000006
mp-16471,Np(GeRh)2,0.0
mp-632694,ScMo3O8,1.0574999999999997
mp-647987,RbBiC4(SN)4,2.5596
mp-776199,AgClO3,3.1131
mp-18878,LiFeAs2O7,2.6107
mp-1073016,Mg2Si3,0.0
mp-24302,CdAs2HF13,3.9677
mp-5611,BaUO4,2.1179
mp-765065,Li2VCrP2(HO5)2,1.6957000000000004
mp-979260,Sc6Ga16Ru7,0.0
mp-1080292,CeSe2,0.63
mp-1099063,Mg14MnCuO16,0.0
mp-645300,Rb4CO4,0.0
mp-989584,Ca6Sn2NO,0.0
mp-1026347,Te2W3(SeS)2,0.0
mp-778681,V3SnO8,0.8160000000000003
mp-14396,Mg3(PO4)2,5.106400000000002
mp-771655,Li3V2CrO6,1.8866
mp-3075,TlGeS2,1.7578999999999998
mp-770652,LiCr3O9,1.351
mp-568830,TmInAu2,0.0
mp-766632,Li4Nb2Cr3Co3O16,0.7717999999999998
mp-770359,TaAsO4,2.6704000000000003
mp-1026643,HfMg14Sn,0.0
mp-559971,LiS2N(O2F)2,5.900399999999999
mp-559031,Eu4Br6O,0.7505999999999999
mp-686204,K3Ba2Pr2(BiO5)3,0.0
mp-22722,NbSiPd,0.0
mp-684664,GaSb,0.0
mp-1079206,PrInPd,0.0
mp-554199,RbSnIO6,2.1505
mp-27880,Nb3Cl7,0.9765
mp-865216,Dy2PdRu,0.0
mp-1030657,NaNbN2,2.2841000000000005
mp-780260,TiGeO3,1.1348999999999996
mp-12919,LaPIr,0.0
mp-555476,Na3OsO5,0.0889000000000002
mp-4810,Pr(CoGe)2,0.0
mp-706,HgF,1.7582
mp-624355,Ce14Si11Ni6,0.0
mp-776970,Li5SbS4,1.1939000000000002
mp-558760,SrZrS3,0.552
mp-1097425,CuSiTc2,0.0
mp-24720,PuH2,0.0
mp-760414,Ti3PdO,0.0
mp-569349,Rb2HgPSe5,1.3726000000000005
mp-1099252,Mg3SbO4,0.0
mp-22119,U(PdS2)2,0.0011999999999998678
mp-540869,VP2H4O9,2.6860000000000004
mp-1022329,Mg6TiFe,0.0
mp-541599,La3Co3O8,1.5747000000000009
mp-779106,Li32Mn11Cr5O48,1.0640000000000005
mp-1035113,LiMg14GaO16,3.3593
mp-1097525,LiCuAu2,1.1624000000000003
mp-1096939,CuGeI3,0.11609999999999987
mp-10675,Ti3AlN,0.0
mp-580748,Re3Se4Cl,1.1639
mp-680152,CdI2,2.3691000000000004
mp-773940,Na2LiFePCO7,3.6665
mp-3933,Mg2PN3,3.537100000000001
mvc-357,Sr2YMn2AlO7,0.3918999999999997
mp-765269,Mn2F7,0.4626999999999999
mp-567027,Y2(MoO4)3,3.5531
mp-1079288,Pr(PRh)2,0.0
mp-769321,ZnSeO4,1.7134999999999998
mp-769567,Li10Ti11Cr9O40,0.0
mp-18830,Fe2PO5,0.09150000000000036
mp-1096214,Ca2MgPb,0.00099999999999989
mp-1078049,Zn(GaS2)2,1.9242000000000004
mp-1007852,FeCo3,0.0
mp-8965,K2Sn2S5,1.399
mvc-4323,SnO2,2.0896000000000003
mp-631449,LiTaBe,0.0
mp-571467,Cs2NaYBr6,4.2176
mp-23927,TiH12(NF2)4,4.5618
mp-1074272,Mg4Si3,0.0
mp-137,Ge,0.3555000000000001
mp-4753,Al2SiO5,4.8355000000000015
mp-24335,YH5(SeO4)2,4.4593
mp-1080051,Zr6Ga2Ni,0.0
mp-770360,Li2AlVO4,2.3276
mp-542205,BaYFe2O5,0.8812999999999995
mp-780420,Lu4Al2O9,4.5421
mvc-3978,Ca2Co2O5,0.0
mp-604964,PH9C(NO)4,5.0135
mp-767679,Li8TiMn3O12,1.3066
mp-763384,Li2Co(Si2O5)2,2.4396
mp-862606,EuSnO3,0.0
mp-1019517,Ba4Mg(SiN3)2,1.5934999999999997
mp-505225,UPO5,0.0037000000000002586
mp-868632,MnOF,0.4628
mp-764980,LiMnF5,2.2836
mp-556782,Gd3CuSnS7,1.0153
mp-756216,EuSeO4,0.0
mp-39938,K2Re3CS5N,1.3673999999999995
mp-680197,KAgC2(SN)2,2.9337
mp-4068,Na2GeS3,2.4515
mp-19009,NiO,2.4978
mp-26949,LiSn2(PO3)5,4.116300000000002
mp-1020019,Li2PNO2,5.6015
mp-561018,Na3Sc2(BO3)3,3.7232
mp-1095367,MgCu2AsO7,0.2346000000000001
mp-1097196,ZnNiAu2,0.0
mp-761334,LiVPO4,2.5282
mp-18738,Nd4Ni3O8,0.0
mp-9673,K2NiAs2,0.08009999999999984
mp-757911,MgAl10O16,4.406999999999999
mp-1096505,Sc2TlHg,0.0
mp-558079,Ca3Mg(SiO4)2,3.8228
mp-1096038,LiLa2Hg,0.0
mp-17698,K6CdTe4,1.6626000000000003
mp-644739,LaGa6,0.0
mp-778590,Co3OF5,0.1066999999999999
mp-505212,Cs3AuO,1.3261000000000005
mp-12834,ThCu6,0.040299999999999336
mp-541819,Rb2Hg(BSe)9,1.8297
mp-11190,VSi2,0.0
mp-764166,Mn6O5F7,0.0
mvc-6139,Zn(NiO2)2,0.14170000000000016
mp-1099121,Mg14MnSnO16,0.1826000000000008
mp-559151,BaSrTa2O7,2.1898
mp-759763,La26B8O51,3.4409
mp-1032171,LiMg6CoO8,0.27059999999999995
mvc-11981,V(SiO3)2,1.4068
mp-28711,Sb2S2O,1.2374
mp-978840,SrLi2(SiN2)2,3.4360000000000004
mp-975312,RbF3,0.0
mp-625928,HI3O8,2.4683000000000006
mp-558607,K3BSb4O13,1.8698
mp-767946,Mn2V3Sb(PO4)6,0.0
mp-10898,ScAlNi2,0.0
mp-1019518,Ba2CaSi4(BO7)2,4.8764
mp-1029316,Na2ZrN2,0.0
mp-22196,Dy2Cu(GeO3)4,0.8678999999999999
mp-1019596,CeZrO4,1.8185
mp-31581,LiCo(PO3)4,0.8914
mp-975079,MnZn3,0.0
mp-565570,Sr9TmV7O28,3.5778
mp-1019531,BaAl2Si3(NO)4,3.5604
mp-30437,CaSnPd,0.0
mp-1021909,Mg6NiSn,0.0
mp-27442,RbCrI3,0.19350000000000026
mp-1025588,W3(Se2S)2,0.8828999999999998
mp-11112,Tb(BO2)3,4.9842
mp-1074934,Mg3Si4,0.0
mp-1079818,CrTe,0.0
mp-30816,Li2AlPd,0.0
mp-763873,Li2Ni(CO3)2,2.1319
mp-1098663,Mg30MnNiO32,2.9084000000000003
mp-13334,ZnSnO3,1.0766999999999998
mp-15078,SiO2,5.6346
mp-774742,Li3Sc2(PO4)3,4.6105
mp-1072260,USnPd,0.0
mp-778889,Li24Ti11CrO36,1.4958999999999998
mp-1064729,Cr3Fe,0.0
mp-763149,LiMnF3,3.293
mp-977401,NbGaRu2,0.06919999999999947
mp-560663,Rb(CoS)2,0.0
mp-13955,SmSi2,0.0
mp-766925,LiVF5,1.5758
mp-1078490,Sc(NF2)3,0.5725
mp-680046,CdI2,2.3373
mp-19614,KMn4(PO4)3,3.0707000000000004
mp-22887,EuCl2,1.3414
mp-631554,Na2TiAu,0.0
mp-568497,EuCu9Sn4,0.0
mp-28230,TlSbS2,1.6534
mp-977371,PW4Cl11,0.5707
mp-977299,Li3Pu,0.0
mp-674976,Zr9ScO20,0.0
mp-559432,CF2,4.9033
mp-765698,Mn6O11F,0.0
mvc-4345,CrSiO4,0.7027999999999999
mp-655141,S,0.8323
mp-1094581,LiMg2,0.0
mp-973956,Lu2CdAg,0.0
mp-770170,Li3V3(BO5)2,0.0
mp-1099309,RbMg6Co,0.0
mp-8058,YAsO4,3.6598
mp-762978,LiCoSiO4,1.2887
mp-571661,K2HgCl4,2.297
mp-715491,Fe3O4,0.8920000000000003
mp-600059,SiO2,5.7102
mp-1001594,C4O3,2.4645
mp-27990,B2H5,6.3448
mp-722963,CuH20S2(NO7)2,0.0
mp-29028,B2AsCl2,3.3988
mp-769261,Na6Sn2C4SO16,2.4077
mp-555837,Rb6Si10O23,4.2187
mp-977433,ErMgZn2,0.0
mp-7348,Sr(BRh)2,0.0
mvc-6671,TiZnP2O7,0.0
mvc-8391,Ni(GeO3)2,0.0
mp-556861,LiY(PO3)4,5.956799999999999
mp-1076585,SrFeO3,0.0
mp-560423,KBS4(ClO3)4,4.6223
mp-20859,DyCuSb2,0.0
mp-705454,NaCo2H3(SO5)2,0.0
mp-8884,ZnTe,1.1007000000000002
mp-554768,Sm4Br6O,0.0
mvc-10394,BaZnBiF7,5.1549
mp-770968,Na3NiPCO7,4.0068
mp-862367,Sc2NiRu,0.0
mp-1025067,ReGe2,0.0
mvc-3925,Ca3Si3(MoO6)2,3.0698
mp-866651,KSiBiS4,2.0549
mp-554034,KLa2NbO6,3.7492
mp-18820,Sr3Fe2O7,0.0
mp-778911,Li4Mn3Fe(BO3)4,2.966
mp-780656,Na2BiO3,1.2107
mp-776059,Ti3NbCo2(PO4)6,0.1880000000000001
mp-7375,KNbO3,2.3098
mp-849470,Li7Co(O2F)2,1.1591
mp-1025245,La2Re2Si2C,0.0
mp-19621,NaVAsO5,1.535
mp-30673,Ti2Ga3,0.0
mp-991101,EuGe2,0.0
mp-779057,Li2Fe2B2O7,2.1347000000000005
mp-16480,Al3Au8,0.0
mvc-1728,Ba2CaCuAg2F14,0.0
mp-28921,Tl5Se2Br,0.38560000000000016
mp-772883,Ba6Sr11I34,3.3618
mp-7041,CaHgO2,2.125
mp-22992,TiClO,0.0
mp-755461,Dy3TaO7,3.3974
mp-775385,Li5V3P8O29,0.5802999999999999
mp-998152,TlAgF3,0.0
mp-706241,Rb8W13O43,1.8216
mp-863765,CeTl5Co2(NO2)12,0.0
mp-763027,FeOF,0.41949999999999976
mp-764383,MnFeCo(PO4)3,0.5416999999999998
mp-9077,Nd2Be2SiO7,5.0243
mp-705356,Li2Fe(PO3)5,2.4488
mp-974760,Rb3Th,0.0
mp-767827,Li3SiNiO5,0.9584
mp-569404,Ni4B3,0.0
mp-9630,TlCrS2,0.06810000000000027
mp-1087555,CeSe2,0.028700000000000007
mp-675372,CaZr4O9,2.2314000000000003
mp-21412,Ce3Tl,0.014200000000000657
mp-1028589,TeWSe,0.26629999999999976
mp-10450,PrAlGe,0.0
mp-763602,Li13Mn8O24,0.0
mp-765495,Li4CrFe3O8,1.7114000000000005
mp-771803,LiNbFeO4,2.1149000000000004
mp-13192,In6ReO12,0.004799999999999471
mp-17323,TbCu(BO2)5,0.9402
mp-775284,Li2Mn3NiO8,1.5294
mp-36111,LiMgP,1.5391000000000004
mp-998235,CsTlF3,0.0
mp-867834,LiHfPt2,0.0
mp-625320,Al(HO)3,4.6972
mp-771925,Li4Cr3Fe3(SbO8)2,1.8131
mp-23260,BaI2,3.452500000000001
mp-569275,Nd2WC2,0.0
mp-771284,Li24Ti7Cr5O36,1.3152999999999997
mp-505190,TbCu(WO4)2,1.4594
mp-557121,K2Sn(AuS2)2,1.6433
mp-1032467,LiMg6FeO8,1.5393
mp-12414,K(USe3)2,0.0016999999999995907
mp-21128,Ca3PbN,0.04380000000000006
mvc-10254,Ti3ZnP3O13,0.0
mp-27178,HgPS3,1.7549
mp-600181,LuH24C4N4Cl7,4.8904
mp-627439,Mn3GaN,0.0
mp-1028304,Mg14NbV,0.0
mp-756188,LiCu3O4,0.0
mp-1026790,LiMg14Bi,0.0
mp-565687,K2CrSO7,2.4712
mp-707373,MgH12(ClO5)2,3.202
mp-685184,SiO2,0.0
mp-781595,CoTe2O5,2.5023000000000004
mp-28742,Ca4Ni3C5,0.006199999999999761
mp-705482,Ba3La3Mn2(WO6)3,1.4413999999999998
mp-574653,Cs2LiIr(CN)6,5.4079
mp-22175,EuC2(SN)2,0.0
mp-775457,Cr(PO3)2,3.025
mp-18827,AlVO4,3.0384
mp-4473,Ba(CuSe)2,1.0019
mp-675608,Nb3(CuTe3)2,0.0
mp-27640,Cd(IO3)2,3.2739000000000003
mp-31661,LiCr2P3O11,2.1306000000000003
mp-36921,Mn2CuO4,0.028500000000000195
mp-23051,NbSeI,0.0
mp-775508,Li4Mn3Cu2Sn3O16,0.10020000000000008
mp-8382,CePO4,0.051099999999999916
mp-698668,Nb3ZnFe3(O6F)2,1.7278
mp-567067,Ba7Al4Ge9,0.0
mp-675033,Ga12Ag2Te19,0.6990000000000003
mp-1074632,Mg2Si,0.0
mp-578629,BaIn2O4,1.6657000000000002
mp-619791,La5C2Cl9,1.6330999999999998
mp-775180,Li2Co3WO8,0.528
mp-541436,NbTl(PO4)2,2.8409
mp-779358,Na3VO4,4.0157
mp-1028626,Te4MoW3(SeS)2,0.0
mp-1098589,HfMg30WO32,0.0
mp-619793,LiFe2F6,1.7238
mp-570152,Co2(SnSe)3,0.33840000000000003
mp-774192,Li2VO3,1.6959
mp-29767,Pt5Se4,0.0
mp-680462,SiC4(SN)4,3.5356
mp-1095967,La2AgOs,0.0
mp-765878,Li2NiP3O10,0.0
mp-28833,Er7Ru2C11,0.0
mp-753557,Li2CuSbO5,0.34830000000000005
mp-31278,Ca3(Bi2Pd)4,0.0
mvc-7295,Zn(SbO2)2,2.1882
mp-7137,LiTbO2,4.5467
mp-24172,H2SO4,6.027
mp-769014,Ho2(SeO3)3,3.9351
mp-676230,U2Bi2O7,0.0
mp-767558,LiCo3Sb(PO4)6,0.0
mp-30422,Sr7Au3,0.0
mp-571499,TaIr,0.0
mp-971926,YErRu2,0.0
mp-1035858,YMg14BO16,0.7645000000000008
mp-849369,Li3VOF4,0.20639999999999992
mp-4805,Gd2SO2,2.0163000000000006
mp-1093705,K2HgSe,0.2559
mp-30651,MgGa2,0.0
mp-554719,Mg3B(HO2)3,3.4202000000000004
mp-759030,KSmH4(N2O7)2,3.3023
mp-755470,Li2BiS2,0.0
mp-30353,AgPt3,0.0
mp-32464,LiV3(P3O10)2,2.0753
mp-755082,Sr3(AsO4)2,3.786
mp-565725,ZrV2O7,2.5909
mp-32913,Nb16N13,0.0
mp-1094616,MgGa2,0.0
mp-10988,NaYbSe2,0.0
mp-862867,PaSe3,0.0
mp-1013530,Sr3BiP,0.0
mp-573282,La2Ni22C3,0.0
mp-764220,LiV2OF5,1.8389
mp-676284,YAgSe2,0.7142
mp-542001,CeF4,2.1
mp-780237,Li3Cu3(PO4)2,0.7711000000000006
mp-555159,Pr2O3,3.5518000000000005
mp-25547,MnO2,1.865
mp-19934,CeMgPt,0.0
mp-30403,Li2PbAu,0.0
mp-19170,PrNiO3,0.0
mp-13385,TmAg(PSe3)2,1.7813
mp-770663,Li2FeBO4,2.3322000000000003
mp-567314,ErNi,0.0
mp-1096573,Sc2ZnCo,0.0
mp-867754,Ta4Ni2C,0.0
mp-676076,Cu11Sb4S13,0.0
mp-644672,Cs3VH8(Cl3O2)2,2.4005
mp-765259,Li4VF8,2.1118
mp-24625,KHCN2,3.8763
mp-765639,Sm11Y5O24,3.8606
mp-6917,TmAgSn,0.1587000000000005
mp-14354,Rb2SrP2O7,4.7092
mp-1074135,Mg4Si7,0.0
mp-763539,LiP3W2O13,2.9335
mp-849952,LiFe4(BO3)4,1.6864
mp-4520,Y(CuGe)2,0.0
mp-698617,La8Mn9O27,0.0
mp-867204,LiCd2Ag,0.0
mp-560359,SbTe7SXeCl(OF4)9,1.5847000000000002
mp-1008929,FeN,0.0
mp-849536,Ni3O4,0.0
mp-996968,AgBiO2,1.6797999999999995
mp-555063,Nd2As4O9,3.367
mp-12559,MnAsPd2,0.0
mp-765692,LiCo2OF3,2.2860000000000005
mp-763470,Li2CoSiO4,2.8271
mp-1079334,SrTcO3,0.0
mp-29187,Co(SiP)3,1.2515999999999998
mp-554577,Li4P2O7,5.650799999999999
mp-19607,K(MoO3)3,0.9796
mp-1094010,ZnGa4S7,2.1153
mp-558187,K2Mo(I2O7)2,3.0251
mp-684617,Bi2O3,0.9627999999999995
mvc-8266,CaFeNiP2O9,0.12030000000000007
mp-983539,BeAu3,0.0
mp-972093,Tm(Mg4Al3)4,0.0
mp-540125,LiMnPO4,3.7652
mp-865902,YbB4Os,0.0
mp-628664,Ce2P3Au,0.0
mp-1090,FeSe,0.0
mp-29375,Na3InS3,2.2716000000000003
mp-9924,Te,0.0
mp-685216,Nb12TlTe16,0.0
mp-1079655,Mn(NCl3)2,0.0
mp-622755,In10(Pb2S7)3,1.3392
mp-1076418,La7SmMn2(Fe3O10)2,1.0325999999999995
mp-1080800,Th(CoAs)2,0.0
mp-976599,LiHg3,0.0
mp-849363,Fe10O9F11,0.9232999999999998
mvc-11129,Ca5(CrN3)2,0.7793000000000001
mp-19602,Ba2CoO4,1.1685
mp-30368,Ca5Au3,0.0
mp-541454,Rb2V4O9,2.3314
mp-767909,LiCoPO4,2.9397
mp-558106,SnH58C16S4(N11O9)2,4.6716
mp-21214,PbSe,0.3306999999999993
mp-865032,Mn2PtRh,0.0
mp-764964,LiCr2(CO3)4,0.667
mp-764724,Li4VO3F2,1.6585
mp-1037499,HfMg30FeO32,0.008899999999998798
mvc-8406,Cr2O5,0.6394000000000001
mp-542468,NdNiO2,0.15689999999999935
mp-779880,Ba2GeO4,3.4905000000000004
mp-1026480,Mg14MoW,0.0
mp-1078453,BaAlGeF,0.0
mp-758259,Li4Ti3Cu3(TeO8)2,0.0
mp-15237,Tb4C5,0.0
mp-17524,GeAs2,1.2009
mp-761459,LiFeSi3O8,3.3418
mp-1018675,DyS2,0.0
mp-755127,Ag2GeO4,0.0
mvc-3046,Ba2Ca2Mn3Tl2O10,0.0
mp-568231,RbMnBr3,1.2465000000000002
mp-773529,Na5LiFe2P2(CO7)2,3.6025
mp-24112,Rb2ZnH12(SO7)2,5.0964
mp-1077367,Ce2Bi,0.0
mp-1079326,GdClO2,0.020299999999999985
mp-566242,K4W2Cl10O,1.1831
mp-18865,K3(FeO2)2,0.0
mp-780646,LiMnPO4,3.1544
mp-12780,Sr(GaAu)2,0.0
mp-1073820,MgSi,0.0
mp-15547,Na2ZnGaF7,3.9775
mp-977573,HfH3,0.0
mp-26114,Ti(PO3)4,2.7981000000000003
mp-571324,CNCl,3.7684
mp-23828,Sr7(H6Br)2,3.7046
mp-1093562,Ba2TlGa,0.6317000000000002
mp-765867,LiV3(O2F)2,1.2103000000000002
mp-862660,LiEr2Rh,0.0
mp-1003314,KMn2O4,0.35660000000000003
mp-17803,Nb2Tl4S11,1.2121
mp-3632,YSF,2.5592999999999995
mp-568448,Cs2AgAuCl6,0.0
mp-771743,Na3FeBPO7,2.096
mp-977155,NpFe3,0.0
mvc-10096,CaFe2P2O9,2.0565
mp-18891,BaV6O11,0.0
mp-23285,CeBi,0.002799999999999692
mp-1079714,SiHgP2,1.0188999999999997
mp-781671,Na6Ni2As(CO4)4,3.4473
mp-18468,Mn5SiC,0.0
mp-1029610,Ca3CoN3,0.0
mp-30418,SnAu5,0.014299999999999537
mp-561455,Ba8Sb6S17,1.3935
mp-540284,CuPO4,0.1441
mp-978515,SmYAl2,0.0
mp-1026597,CsMg14Sb,0.0
mvc-8012,CaFeAs2O7,1.9294
mp-567109,Mn2Fe3(SiO4)3,0.0
mp-1034663,RbNaMg14O15,2.0775
mp-4829,Na2ThF6,6.4627
mp-549475,TbBi2BrO4,1.2894
mp-625578,H5BrO2,4.2047
mp-1022625,Mg6ZrZn,0.0
mvc-5380,CaAgAsO5,0.6075999999999999
mp-556214,CaB4O7,5.6352
mp-554311,RbCrF6,1.4164
mp-540098,Li2FeP2O7,4.2309
mp-977581,EuHgAu2,0.0
mp-771955,Sr3LaBr9,2.9573
mp-555129,La3S3N,1.3357
mp-770889,La2WO6,3.222700000000001
mp-684711,Zr3S4,0.0
mp-560280,TeC6(ClF7)2,3.3302
mp-1098935,Mg30NiBiO32,1.3261000000000005
mp-22167,Zr6Ga2Co,0.03449999999999953
mp-1100752,Li9Mn2Co5O16,0.0
mp-775995,Mn3CrSn2(PO4)6,0.0
mp-765205,CrOF4,2.3223
mp-756323,Li2CuAsO4,1.2786999999999995
mp-766938,K3Li2Nb5O15,2.5576000000000003
mp-763048,V2OF5,0.7114
mp-973968,KNaO3,0.0
mp-736272,HgH16C6(N2Cl)2,3.7758
mp-570751,Nb3Te,0.0
mp-1095789,Sc2ZnIn,0.0
mvc-9861,LaMgCrBiO6,0.0
mp-761897,LiCuF3,0.5463
mp-559440,V2(CuO2)5,0.0
mp-569594,Fe7Mo6,0.0
mp-28475,H2Pb3O4,2.8454999999999995
mp-23313,InBi,0.0
mp-631771,SrVF5,2.3773
mp-15800,Ti3PO2,0.0
mp-13034,MoN,0.0
mp-1077970,Fe3Se4,0.0
mp-770891,Ti3Cr3(SbO8)2,0.7077999999999998
mp-631254,KMnRu,0.0
mp-556806,BaNa2(SiO3)2,4.1743000000000015
mp-755902,Lu(HO)3,3.596
mp-1027517,Te2Mo3W(Se2S)2,0.0
mp-707027,CaScSi3HO9,5.0957
mp-1097080,Hf2ZnTc,0.0
mp-2768,Ba2As,0.0
mp-21871,CeCrS3,0.0018000000000002454
mp-866004,Er2InAg,0.0
mvc-6882,ZnSi2NiO6,3.4739
mp-707729,BaH6C2S2N2O3,4.1094
mp-673685,Li17(MnAs2)4,0.0
mp-1021286,SrLiMg6,0.0
mp-763525,K8Li13(FeO4)4,1.7423999999999995
mp-1019593,Ce(PO3)4,1.2294
mp-1097272,Sr2LiMg,0.0
mp-764346,Li2FeSiO4,2.9932
mp-865511,VCl4,0.1208
mp-545482,PdSeO3,1.0589
mp-1021161,CsLaMg6,0.0
mp-867868,Sm2AgIr,0.0
mp-540275,LiCo(PO3)3,3.0688
mvc-6030,Ca3Co3(AsO4)4,2.467
mp-1095920,Y2NiPd,0.0
mp-773707,Li4Ti3Mn2V3O16,0.9531
mp-542615,Bi3Se4,0.08789999999999942
mp-703299,K2H2RhCl5O,0.5501
mp-13948,Cs2HfF6,7.2288
mp-645159,FeBiO3,1.5185000000000004
mp-760595,CuCO3,0.1027
mp-1023500,YMg6Al,0.0
mp-777435,MnVP2(O4F)2,1.1557
mp-745203,Li9Mg12Fe(PO4)12,0.8375999999999999
mp-1100167,BaMg6Ga,0.0
mp-761438,Li2Cr2P2O9,2.3611
mp-779890,Li2MnFe(BO3)2,2.7177000000000007
mp-556597,In3S4,0.0
mp-556958,La4S3N2,1.1936999999999998
mp-1097243,KBaHg2,0.0
mvc-13731,Zn2WN2,0.0
mp-864978,Mg2AgAu,0.0
mp-772057,Li3Mn2VO6,0.6628000000000001
mp-28287,ReBi3O8,2.7447
mp-766483,Li7(Cu6S5)2,0.0
mvc-5811,TaZn2WO6,0.0
mvc-2293,V9O13,0.0
mvc-8884,TiZnSn(PO4)3,0.0
mp-1073935,Mg6Si5,0.0
mvc-5066,Mg2NiWO6,2.6519000000000004
mp-556273,S4N5Cl,2.1844
mp-7096,Fe3S4,0.0
mp-582055,La7Ni16,0.0
mp-776226,Hf2N2O,2.0254000000000003
mp-555507,Sr10Al2ClF25,6.4233
mvc-9043,MgMo2(PO5)2,0.5431999999999997
mp-655,Na3As,0.06690000000000018
mp-1015612,CrN2,0.0
mp-650978,Ru5C14(SO7)2,1.7639
mp-1098690,LiMg30MnO32,1.4162999999999997
mp-769794,Li2CrO3,1.7417
mp-1028586,Te2W,0.6218000000000004
mp-762797,Li3VF5,2.585
mp-861725,LiTl2Rh,0.0
mp-764913,Mn2O3F,0.0
mp-866105,Ca2HgPb,0.0
mp-776212,Hf2N2O,2.0726
mp-561067,KRb2FeF6,4.0965
mp-1093989,Na,1.2688
mp-1028276,KMg14Sn,0.0
mp-1079378,Au(OF3)2,0.0
mp-559417,LaB2ClO4,4.1541000000000015
mp-685138,U2AsSe,0.0
mp-1016073,CrN2,0.0
mp-560186,BaMgSiO4,4.113899999999999
mp-1024999,HoCr2Si2C,0.0
mp-566531,K8Th(MoO4)6,3.9442
mp-763935,V6O7F5,0.9371
mp-1079607,LiLaSn2,0.0
mp-569152,SnCl2,3.0724
mp-569581,Bi2Pt,0.0
mp-621938,Cs3Cr2I9,1.0042
mp-554193,NaGa(TeO3)2,3.2430000000000003
mp-1028063,Mg14MnGa,0.0
mp-1096515,Hf2CrIr,0.0
mp-648774,Zr2Cl5,0.0
mp-1096794,Al2Zn2S5,0.03279999999999994
mp-571163,MnSbRh2,0.0
mp-1017381,Mg6CrSi,0.0
mp-864985,MnZnIr2,0.0
mp-5224,BaSi2O5,4.8574
mp-743761,LiFe3SiPO8,2.5643
mp-1037969,SrMg30AlO32,0.4602000000000004
mp-864652,Nd3MnAlS7,0.4519000000000002
mp-1021684,NaMg6V,0.0
mp-16337,Ga2HgTe4,0.6610999999999998
mp-24938,BaSr(FeO2)4,1.8206