mpid,formula,gap pbe
mp-765290,Li4V3P8O29,0.8027
mp-19921,PbO,1.4694999999999991
mp-762216,Mn3Co2Ni(PO4)6,0.0
mp-981200,Zn3Cd,0.0
mp-5932,Nd6Fe13Si,0.0
mp-582819,Pu,0.0
mp-1078820,DyMgAg,0.0
mp-1063224,HoHg2,0.0
mp-1080427,TmSnIr,0.0
mp-862985,PmAu3,0.0
mp-21111,NdSnPt,0.0
mp-867243,Sc2ZnOs,0.0
mp-504886,Gd2O3,3.0370000000000004
mp-981379,Zn3CdS4,1.6797999999999995
mp-21580,EuSnF7,3.9078
mp-763337,Li3Mn2F7,3.6254
mp-2323,BeCu,0.0
mp-3716,TbNiSb,0.4447000000000001
mp-570022,Ho5Co2Bi,0.0
mp-780671,SrTaNO2,0.7380999999999993
mp-707160,HNF2,1.5769
mp-5112,Pr(CoSi)2,0.0
mvc-9411,Cr13Si2(SbO14)2,0.18659999999999988
mp-3074,KAgO,1.4716
mp-28018,Be(H2N)2,3.3225
mp-572284,SbXeOF9,2.2
mp-853273,LiV2OF5,1.6439
mp-850141,Mn2OF3,0.050899999999999945
mp-1031639,Mg6NiCO8,0.2135000000000007
mp-1080533,U(SiAu)2,0.0
mp-767230,LiMn2(PO4)2,0.0
mp-996978,CuAuO2,0.0
mp-866201,Ti3Bi,0.0
mp-600005,SiO2,5.4398
mp-505472,Al3(Ni10B3)2,0.0
mp-5402,CaTl2O4,0.04610000000000003
mp-1028329,Mg14NiBi,0.0
mp-769737,LiAlVO4,1.5135999999999998
mp-13326,PrLuSe3,0.4931999999999999
mp-573581,Na2TeSe3,1.1915000000000002
mp-613826,BaCrF5,3.5946
mp-558861,KI(OF)2,4.1474
mp-540842,U2CoO6,0.3182999999999998
mp-3073,Sm2Te4O11,3.2854
mp-21283,Cs2PbO3,1.3724
mp-1016271,Mg7Al,0.0
mp-765777,V3O5F,0.9374000000000002
mp-565666,DyMoClO4,2.7273
mp-3325,Ce(NiGe)2,0.0
mp-1095073,MoPRu,0.0
mp-781073,Li5CoO4,1.5192
mp-776913,Li2FeWO6,0.0
mp-1096032,Zr2ReRh,0.04159999999999986
mp-977416,Er2AgIr,0.0
mp-706662,AlB3H14N,1.1690999999999998
mp-1094536,Mg2Sb,0.0
mp-15809,Cr2B,0.0
mp-567780,RbSn2Br5,2.3889
mp-30213,Sb2BrF15,2.97
mp-31777,LiFePO4,3.7005
mp-12449,LiPr2OsO6,0.4859
mp-12666,Be12Pd,0.0
mp-973824,LiHg3,0.0
mp-676002,Ba2PrF7,6.2167
mp-7074,NaSc(SiO3)2,4.950100000000001
mp-32606,Ba3P2,0.2216999999999998
mp-1009135,MnP,0.0
mp-1006883,CoNi,0.0
mp-1078755,SbPt3,0.0
mp-780757,Fe2O3F,0.0
mp-630227,C,0.9032
mp-561823,GeBi2O5,2.3809
mp-756666,BaCaI4,3.9106
mp-568588,NdTlSe2,1.9676000000000005
mp-2840,PuIr2,0.0
mp-1021689,Mg6VW,0.0
mp-604467,UO2,0.0
mp-1027816,Mg14CuSn,0.0
mp-27928,Ge2S3I2,2.2528
mp-705803,Ti7Fe13O30,0.6956999999999995
mp-770312,Li24Mn7Cr5O36,1.127
mp-29644,GeBi4Te7,0.5721000000000007
mvc-11768,Ca3(FeN2)2,0.0
mp-1077375,UPt5,0.0
mp-980936,Y5(In2Pd)2,0.0
mp-673657,Ti7S12,0.0
mp-566233,Rb2Mo2O7,3.3644000000000003
mp-1095560,Zr3Al3Ni3H2,0.0
mp-510426,Ta4Te16Pd3,0.0
mp-1025223,Hf4Al3,0.0
mp-676646,Tb2Zr8O19,2.325
mp-853182,LiCr(Si2O5)3,0.7595000000000001
mp-766068,LiNiP2O7,0.014299999999999981
mp-676664,KBa2DyBi2O9,0.0
mp-865609,LuGaRh2,0.0
mp-540375,LiCoP2O7,1.0774
mvc-4398,Ca2TaWO6,1.2885
mp-768054,Li4V3CrO8,0.9635000000000002
mp-559668,Cs2CdBi2S5,1.9339
mp-1077033,YbSe2,0.0
mvc-9175,TiV(PO4)3,1.3491
mp-1016884,CaGeO3,0.5053999999999998
mp-1084757,LaNiSn2,0.0
mp-777253,Li6Fe2O5F2,1.9382
mp-7192,Sc2Sb,0.0
mp-570817,Cu2P8Se3I2,1.3297999999999996
mp-22327,PuGa3,0.0176999999999996
mp-610915,CoNi(PO3)4,2.9062
mp-28248,CdI2,2.3656
mp-567351,Tb4MgIr,0.0
mp-1028283,Mg14VB,0.0
mp-780722,Y6N2O5,0.0
mp-3792,YAlO3,5.5402
mp-608239,Cu8Ge5C4(S2N)8,0.0
mp-569737,Tb(SiPt)2,0.0
mp-1016930,ZnGeO3,0.0
mp-982666,LiAl2Tc,0.0
mp-1026594,RbHfMg14,0.0
mp-715488,CrO2,0.08150000000000013
mp-762966,Li3V3P8O29,1.2464000000000002
mp-705367,LiV4P7O24,1.9036
mp-25566,MnH2(SO4)2,4.8989
mp-23210,MgCl2,5.6168
mp-27532,Si(PbSe2)2,1.8204
mp-1020716,Rb3B(SO4)3,5.1274
mp-1080547,CeMgAg,0.0
mp-1099810,Sr2Ca6Mn7FeO20,0.0
mp-1037038,RbMg30CoO32,2.2463
mp-962078,CaCdSi,0.0
mp-1096616,MgZrCd2,0.0
mp-989591,K2BrCl6F,0.9144
mp-722862,CdH3NO5,3.2456
mvc-7786,Zn(WO2)2,0.1429999999999998
mp-1033459,Mg6NbCO8,0.0
mp-14213,Sr4GeP4,1.1366
mp-569387,Cs2Lu7CCl18,0.0
mp-27838,Na3Bi,0.0
mp-765848,Co3TeO8,0.0
mp-764971,Li3Fe8(BO3)8,1.5276
mp-542295,NaYbGeO4,0.0
mp-774345,Li2Mn2(PO4)3,0.8685
mp-977586,MgSc2In,0.0
mp-16430,Pr(FeP3)4,0.0
mp-772392,LiTiVO4,0.7527000000000004
mp-771505,Li4CrCo5O12,0.14769999999999994
mp-1026719,RbMg14Si,0.0
mp-1078736,Pr(NiSb)2,0.0
mp-779318,LiCr2P3O13,1.0714
mp-11903,LiEu2IrO6,0.0
mp-686588,RbNa10Al11Si13O48,2.5018
mp-866037,GaNiRh2,0.0
mp-17260,Zn3SiNi2,0.0
mp-36358,Ca(GdS2)2,1.4014000000000002
mp-779289,Na6Bi2B4SO16,0.0
mp-1099945,KNaW2O5,0.3849999999999998
mp-764734,Mn3VSb2(PO4)6,0.0
mp-23730,NaMgH3,3.103
mp-567080,V4O7,0.581
mp-771438,Na3Li3Fe2P2(CO7)2,3.7557
mp-850180,Li4Fe3OF8,2.6677
mp-680433,Ba6Ca6Tl5Cu9O29,0.0
mp-5403,Rb2TiO3,3.9008
mp-865887,TmCdAu2,0.0
mp-3054,Li2CO3,5.0712
mp-8499,Ho2Cr2C3,0.0
mp-10504,ScB4Os3,0.0
mp-573267,YbNiGe2,0.0
mp-30176,U2AlCo3,0.0
mp-767732,BaMn4O8,0.3571999999999997
mp-2585,Sr5Sb3,0.0
mvc-12893,Al4(NiO4)3,0.0
mp-773359,Li2VCoO4,1.3384
mp-705451,CsTiMnOF5,2.0199000000000003
mp-707277,AgH2C2N3O,3.2954
mp-22987,BiIO,1.4833000000000005
mp-570032,Ca3SiBr2,0.0
mp-505000,MoCl4O,1.7247
mp-1031323,KMg6CrO8,0.0
mp-5282,AgCO2,2.3849
mp-540455,Li3V2(PO4)3,1.9856000000000005
mp-778771,Li10Cr3Co2Ni3O16,0.0
mp-863005,Ca2Al2Si6SnO22,0.0
mp-4252,SnPS3,1.821
mp-865029,LiPaRu2,0.0
mp-1096871,BaNb4(FeO7)2,2.6767000000000003
mp-674347,Yb4MgGe4,0.0
mp-582794,Nd3Ti4O12,0.0
mp-1109,Sr5Al9,0.01100000000000012
mp-556837,AgAs(S8F3)2,2.7366
mp-1077258,Nb2Cr,0.0
mp-1020594,Zn2SiO4,2.6732
mp-675420,Pr4Ag2Se7,1.4980999999999995
mp-652048,OsC4ClO4,2.4779
mp-6809,CaSiSnO5,3.2240999999999995
mvc-2949,SbO2,1.5413
mp-569482,LaSi2Ru3,0.0
mp-1021489,IrO3,0.0
mp-568909,Cs2MgCl4,4.9974
mp-1099161,YMg14TiO16,0.0
mp-1029442,Mg2TaN3,3.1028
mp-765764,V4O5F7,0.5571999999999999
mp-570164,YbTl3,0.0
mvc-2470,Mg2Fe9O13,0.5634000000000001
mp-971819,YLuIn2,0.0
mvc-8872,Si4WO10,0.027099999999999902
mvc-2092,Sr2YTlSn2O7,0.0
mp-12912,Ba2PrRuO6,0.2535000000000003
mp-1016353,SrMg6Sb,0.0
mp-861935,CaSnRh2,0.0
mp-28195,SiAg2O3,0.6345999999999998
mp-676516,Pr2Pb17Se20,0.6900999999999997
mp-1074143,Mg4Si7,0.0
mp-675539,Na7Cu3O8,0.9871
mp-779383,Mn12O17F7,0.0
mp-764736,V4O5F7,1.4169999999999998
mp-1154,Ho4C7,0.6147
mp-764893,Li2MnV(P2O7)2,0.3926000000000001
mp-752415,NbO2F,1.6800000000000002
mp-1001742,TaSe2,0.0
mp-1098754,HfMg30AlO32,0.0
mp-1016241,Mg3Mn,0.0
mp-753653,LiTi2P4H3O16,2.569
mp-1022732,FeBiAsO,0.0
mp-676779,NaHo2F7,5.8348
mp-570179,TbAu2,0.0
mp-3213,LaMnSi2,0.0
mp-976082,Mn2GaW,0.0
mp-762579,Li2V2(PO4)3,1.1517
mp-25655,Pr(WO4)2,0.0655
mp-770816,Dy2TiO5,3.3008
mp-14024,Zr3O,0.0
mvc-11133,Ca(CoS2)2,0.7425000000000006
mp-11765,Ti5Se4,0.0
mp-777679,LiFeF4,3.3818
mp-1075975,EuCoO3,0.0
mvc-9879,HoMg(SbO3)2,0.0
mp-11596,PrBPt3,0.0
mp-15695,YAsPt,0.0
mp-32682,Te8Ir3,0.0
mp-1026817,LiMg14Nb,0.0
mp-768658,La(HO)3,4.1594
mp-554614,Cu3(AsO4)2,0.0
mp-1033344,Mg6NbCdO8,0.0
mp-30941,Cd2(TeO3)3,1.9309
mp-607138,Sc5Bi3,0.0
mp-755472,BaCuO2,0.3256000000000001
mp-734836,ZnH12C6S2(N5O)2,3.7795
mvc-1993,ZnSbAs2SeO7,0.4229000000000003
mp-1094259,Hf3Mg,0.0
mp-1016582,BaMg6Cd,0.0
mp-541298,KHfH2OF5,6.8683
mp-754988,KVO2,1.4364
mp-1025922,Mo2WS6,1.2626
mp-982070,VIr,0.0
mp-764396,Li3V2(O2F)2,0.8582999999999998
mp-1096239,CaTlHg2,0.00690000000000035
mp-560036,Li2Ca3Be3Si3(O6F)2,5.7347
mp-996965,AgBiO2,0.7798000000000003
mp-769758,Li4Cr3FeO8,2.4911000000000003
mp-1030940,KMg6BiO8,1.1415999999999995
mp-975380,RbCdO3,0.0
mp-1096882,Cr3N2,0.0
mp-27063,Li2CuPO4,1.4033999999999995
mp-32463,Li3V3(PO4)4,2.0045
mp-558289,UAg2(SeO4)2,1.5089
mp-765769,Li10Ti3Mn5O16,0.8626999999999998
mp-766786,VF5,3.2564
mp-567177,KNb(AgSe2)2,1.4594999999999998
mp-540654,RbCdC3(SN)3,3.208
mp-758180,CsSi3HO7,4.7963000000000005
mp-776264,LiFeF4,3.2364
mp-865958,AcTlAg2,0.0
mp-1009017,HoSb,0.0
mp-763456,LiP4WO12,3.8488
mp-567770,Zr2Al3C4,0.0
mp-859118,LiAgF6,0.8249999999999997
mvc-6066,Ca(BiO2)2,1.1443000000000003
mp-1097566,CaHgPd2,0.15580000000000016
mp-570254,ThBC,0.0
mp-770556,Li3MnO3,0.7440999999999998
mp-574469,BaCoN,0.0
mvc-2641,SrMgTi(PO4)2,0.5297999999999998
mp-560702,BaHgRuO5,0.3148000000000002
mp-1079455,CeNiAsO,0.0
mp-1026948,TeMoWSe2S,0.0
mp-23434,Al2CuCl8,0.6626
mp-1097562,CaHg2Pb,0.3207
mp-766792,MnCoO4,1.1610999999999998
mp-24198,CrHgH18N6Cl5,2.6843000000000004
mp-1035067,Mg14CdCoO16,1.9117000000000008
mp-1034435,BaMg14CrO16,0.1737000000000002
mp-695536,LaH6S3(NO3)3,4.2155
mp-1093716,YPdAu2,0.07940000000000014
mp-569825,Dy10Si17,0.0
mp-31872,Fe5(P3O11)2,0.0027999999999999137
mp-1031781,CaMg6BiO8,0.0
mp-763323,LiMn2(BO3)2,0.7656999999999998
mp-7623,MgAs4,0.8144
mp-771698,LaAlO3,4.4777
mp-962068,CaMgSn,0.0
mvc-1735,MgCu(PO3)4,0.19700000000000006
mp-1040341,KCeMg30O32,0.4746000000000006
mp-867904,AlGeRu2,0.0
mp-504353,LiSb(PO3)4,4.6567
mp-1026669,KMg14Ti,0.0
mvc-10862,Ti(BiO3)2,0.0
mp-689918,Li2Mn(PO3)4,4.1915
mp-20282,CsPbF3,3.4949000000000003
mvc-10289,NiO2,0.0
mp-563025,Na6PbO5,1.0556
mp-1031488,Mg6NbSnO8,0.0
mp-570146,ZnSi4As2(H3C)12,2.7616
mp-17868,NaAsO3,2.8378
mp-763967,Co3(O2F)2,0.0
mp-762780,LiMnP2O7,0.3032999999999999
mp-18484,La3MnFeS7,0.0
mp-1093604,Tl2HgSe,2.4559999999999995
mp-611758,MgMnGe,0.0
mp-997109,PbAuO2,0.3727
mp-779842,Li2MnV(P2O7)2,0.5154000000000001
mp-29468,Rb6Cl4O,1.6658000000000002
mp-1079194,K2PtO6,0.0
mp-1023503,Mg15Ga,0.0
mp-974634,LiAg2Pd,0.0
mp-609229,Co(CO)4,2.6524
mp-1028376,HfMg14Ni,0.0
mp-999355,NbN,0.0
mp-5940,CeB2Ru3,0.0
mp-1021345,KBaMg6,0.0
mp-570001,Al6Fe,0.0
mp-31117,NdScO3,4.2936
mp-569841,Ba19Li44,0.0
mp-568086,NaSn,0.34289999999999976
mp-600022,SiO2,5.8663
mp-631573,Re2AuSe,0.0
mp-554993,Pd3(PbS)2,0.0
mvc-5257,Ca2AlWO5,0.9559999999999996
mp-542584,EuTl,0.08569999999999968
mp-862565,ScBr2,0.0
mvc-2636,Mg4Cu5(TeO6)3,0.0
mp-1095962,LiAg2Bi,0.4315000000000002
mp-10259,Zr(NiP)2,0.0
mp-1080057,CeCuSi2,0.0
mp-1027614,Te2Mo3W(Se2S)2,0.0
mp-17243,Pr3CuSnSe7,1.2305
mp-1980,YbNi2,0.0
mp-642227,Sb8Pb5S17,1.4318
mp-1078748,Sr2TaInO6,3.7897
mp-645,TbP,0.0
mp-704183,LiMo2PO8,0.9047
mp-771735,TaFeO4,2.0926
mp-569334,NdMn2,0.0
mvc-3986,Zn2Cr2O5,0.9592999999999998
mp-999501,Na,0.0
mp-557600,SbC2N(OF3)2,4.6214
mp-780173,Na5GdO4,2.5823
mp-570535,NiH20(C4N5)2,2.0089
mp-24563,Ga2P3(HO3)3,5.1674
mp-1094069,Sr2Cd2Cu(SO)2,0.0
mp-557874,KAg(PO3)2,2.9041
mp-778583,Li3Mn2(CoO4)2,0.0
mp-555156,MnCrF5,2.2668
mp-29164,SrBiO3,0.3111000000000001
mp-766337,Ba6CaI14,3.0651
mp-568670,Cs2NaTbCl6,5.2046
mp-3092,DyB2Ru3,0.0
mp-25537,Fe(WO4)2,0.0
mp-23211,PrCl3,4.3439
mp-771832,Li2Ti3SnO8,0.0
mp-1018082,CrCo2Sb,0.0
mvc-13246,La2MgSbO6,0.0
mp-850253,LiFe2(BO3)2,1.8867000000000005
mp-1022266,NaMg6Fe,0.0
mp-780576,Li2Sn(SO4)2,3.9934
mp-763360,Li2Co2(SiO3)3,2.8418
mvc-2048,Zn2Sn9O13,0.0
mp-12932,TbTaO4,4.0492
mp-1077095,LuCdNi4,0.0
mp-565543,NaV(SiO3)2,2.0001999999999995
mvc-8418,MgGe2WO6,1.9874
mp-766447,Li2Cu4S3,0.7526000000000002
mp-632990,Li2PWO4F,2.2275
mp-775604,Li6Cr3Cu(PO4)6,0.2733000000000001
mp-20037,PrInRh,0.0
mp-626481,Al(HO)3,3.8282
mp-9061,KPdF3,0.2439
mp-625628,GaHO2,2.0642
mp-764310,KLi2MnPCO7,3.0119
mp-765837,Li8VO5F,2.1185
mp-505215,Ba(Cu3As)2,0.0
mp-2956,Co2(GeS)3,0.5346000000000002
mvc-12608,CaMn4O8,0.0
mp-1020657,NaSr(PO3)3,5.4018
mp-1022672,Mg6ZnB,0.0
mp-603414,Rb2TeH6SeO10,3.0242
mp-748,Ti5O9,0.0
mp-29458,Rb3Mo2Cl9,0.9607
mp-1032129,Mg6CdFeO8,1.1327999999999996
mp-782034,YNb2NO5,2.5160000000000005
mp-669495,Nd14Cl32O,0.16080000000000005
mp-17696,Ba2VN3,1.3895999999999995
mp-765256,Li7V(O2F)2,2.2040999999999995
mp-14289,Ba3P4,0.4815
mp-1029775,BaMnN2,0.0
mp-16830,Sr(Ni2B)6,0.0
mp-1093667,LaYTl2,0.0
mp-625159,H3ClO5,4.888
mp-7574,AlBMo,0.0
mp-1096333,BaNa2Ca,0.5851999999999999
mp-7638,LiTa3O8,3.4495
mp-28531,Rb2Ta15O32,0.05679999999999996
mp-555271,Ba2Zn2ClF7,4.354
mp-570091,Rb(CoSe)2,0.0
mp-694964,Na4MnAl3Si3O16,1.7946
mp-2858,ZrO2,3.4737000000000005
mp-554879,CuHgSBr,0.4491999999999998
mp-735547,MnP(HO)7,0.5233999999999999
mp-4341,Pr(P3Ru)4,0.07480000000000064
mp-1097601,GaCuNi2,0.0
mp-557468,K5V3F14,0.0
mp-974381,Rh2S3,0.4180999999999999
mp-763509,LiTiVO4,0.31169999999999964
mp-1080365,CeSe2,1.0405000000000002
mp-776567,NaTi2(PO4)3,2.5131
mp-2718,C2N,3.1235
mp-1094854,Mg3Ga,0.0
mp-1079158,TaReSi,0.0
mvc-9895,HoTi2ZnO6,0.0
mp-12671,Er2SO2,3.0733
mp-570677,Ba5Al5Sn,0.0
mp-1028144,Mg14MnV,0.0
mp-972722,SmAs3,0.0
mp-1098352,NaMg30TiO32,0.5169000000000006
mp-3031,BaSi2O5,4.7566
mp-761564,Li2MnP2O7,2.3245
mp-1078106,Mn2SnS4,0.0
mp-1076848,Sm2Ag2O5,0.002800000000000136
mp-1093764,Ba2ZnSn,0.0867
mp-18964,K3NaCr2O8,3.0493
mvc-11990,Ni3(P2O7)2,0.0
mp-3934,Cu3PS4,1.0202
mp-1029385,Li2SnN2,1.6967
mp-14493,Na5InO4,1.8909
mp-20885,Fe4P,0.006299999999999528
mp-694922,BaLa5TiCr5O18,1.9947
mp-673681,Ta11O2,0.0
mvc-12404,TiO2,2.5323
mp-763347,Li2VO2F,0.3455999999999997
mp-764385,Li4Fe3Cu3(SbO8)2,0.0
mp-961678,ScCoTe,0.8677999999999999
mp-866072,MgTaRh2,0.0
mp-761751,Li7V3P8O29,0.7657
mp-2074,Li3Sb,0.8451
mp-11695,Rb2Pd3S4,1.1973999999999998
mp-744149,NaCa3MgFe(Si2O7)2,0.7612000000000001
mp-561254,NaLi3GeO4,3.6606
mp-31212,K2MgF4,6.405900000000001
mvc-9074,Sb3O7,0.0
mp-1098290,RbMg6W,0.0
mp-32457,V(PO3)4,1.443
mp-1021520,BaMg6Ti,0.0
mvc-6922,CaSi2NiO6,3.5985
mp-632802,Ba2CaTlCu2O7,0.0
mp-603612,TiP4H8N2O13,2.7679
mp-18135,Zr4Co7Ge6,0.0
mp-7420,KHgAs,0.0
mp-585224,LiCo5(P2O7)4,0.0060999999999999934
mp-3385,Sr(PPd)2,0.0
mp-565880,BaSr(FeO2)4,0.5324000000000001
mp-758450,LiCu3(CO3)3,0.0
mp-11471,ScHg,0.0
mp-25614,LiNiPO4,3.9929
mp-560602,O2,1.2986999999999995
mp-753605,LiCuS,0.9218000000000002
mp-763033,Li2Fe3CoO8,0.0
mp-760078,Ba4Ti11O26,2.7188
mp-1019089,KMgAs,1.1621
mp-18926,La3Ni2O7,0.0
mp-573103,Cs2Np(SO5)2,0.2934000000000001
mp-978278,Na(BH)6,5.6439
mp-11677,Sr3(SiAs2)2,0.9179
mp-29069,Na(CuS)4,0.0
mp-571044,CeSi2Ir3,0.0
mp-752724,Ho2TiO5,3.0358
mp-1018953,PuSbTe,0.0
mp-7295,RbCr5S8,0.3940000000000001
mp-765602,Na5Ni9O16,0.0
mp-1728,LuRh2,0.05210000000000026
mp-764053,V3OF11,1.5254
mp-1070116,Ga2Te3,0.0
mp-764809,Li3MnFeCo(PO4)3,2.3822
mp-777032,Li3V5O12,1.5843000000000005
mp-763354,LiVPO5,2.9567
mp-1021507,Ba2Y(CuO2)3,0.0
mp-1009792,RuC,0.6642000000000001
mp-21112,In2FeS4,0.040899999999999714
mp-7507,Sr3Li2,0.0
mp-720860,H9CSO7F3,5.8426
mp-1095094,SnI3,0.0
mp-866827,Ca3Sn2S7,0.4588000000000001
mp-556635,CuBi2(SeO3)4,0.5945
mp-770616,Li2Cr3BiO8,0.0
mp-849684,MnOF,0.2518
mp-763350,V3O5F,0.5902000000000003
mp-8314,Cs2NaAsO4,3.7352
mp-853250,Na4MnO4,0.6456999999999999
mp-949,CoPt,0.0141
mp-1035830,Mg14ZnCrO16,1.0130999999999997
mp-753800,NbOF3,3.6646
mp-555616,CaNb2Bi2O9,0.0
mp-26327,Li6Bi3P8O29,0.0
mp-769939,LiMnBO3,2.5814
mp-770222,Li3MnV(PO4)3,0.9115
mp-675871,ErPaO4,3.199
mp-557985,KPO3,4.9935
mp-755236,HoTiO3,0.0
mp-22528,ThCrB4,0.0
mp-1030747,RbNaMg6O7,0.9018999999999996
mp-675295,InPF3,1.2412
mvc-9785,VPO4,1.5976
mp-30357,Sr3Ag2,0.0
mp-559792,Nd2As6Xe5F46,2.6927000000000003
mp-30463,BiPd3,0.0
mp-637680,K2Mo4O13,2.9414
mp-867077,TiMnH12(OF)6,2.2193
mp-1077380,SmInPt4,0.0
mp-19092,CoWO4,2.3735
mp-765119,Li8Mn3CrO12,0.9127999999999998
mp-977462,ZrCdAu2,0.0
mp-690760,TiH,0.0
mp-1094349,MgTi,0.0
mp-765237,VF4,2.2356
mp-755464,CeBrO,0.0
mp-27612,BH7N2,5.6370000000000005
mp-4590,Mg(GaO2)2,3.1080999999999994
mp-998193,RbSnF3,3.4052999999999995
mvc-11567,CaMn(SiO3)2,3.2619
mp-25542,LiMnO2,1.1382000000000003
mp-581968,Tm2Pd2Pb,0.0
mp-30611,ErSnPt2,0.0
mp-773779,Li2Cr3NiO8,0.9141000000000004
mp-25153,TlVO3,3.0108
mp-769457,Li4Ti4Cr(Fe2O9)2,0.6461999999999999
mp-618750,NaMnCrF6,3.2814
mp-1080642,CeSe2,0.9642
mvc-6939,NiO2,0.0
mp-27533,P2Pd15,0.0
mp-763025,LiCr(PO3)4,3.0954
mp-1073816,MgSi,0.0
mp-869,TaAl3,0.0
mp-976114,Li2CdHg,0.0
mvc-516,BaCaTi4O8,0.0
mp-2381,ErRh,0.2256
mp-754578,TmGaO3,3.6067
mp-571247,Al3Mo,0.0
mp-775078,Li4Ti3Nb3V2O16,0.0
mp-694897,Cr6PbO18,0.0
mp-1080771,NaCl7,0.5030000000000001
mp-769381,Ca3Ta2O8,4.5215000000000005
mp-696572,TiP,0.0
mp-623463,TbMn5Ge3,0.0
mp-766976,Li4Mn3OF11,1.4098000000000002
mp-620471,Cs3Te22,0.0
mp-531523,LiGa5O8,2.6362
mp-19260,Li2WO4,3.968
mp-770949,Li2VPCO7,2.2484
mp-694886,Ca11Cr7O28,0.8536000000000001
mp-764309,VOF,1.6544
mp-13972,Sm2SeO2,2.1358
mp-19368,Sr2V2O7,3.3868
mp-774351,Li3Cr3(CuO6)2,0.0
mp-1099245,Mg3FeO4,0.0
mp-21386,Eu(PIr)2,0.2748999999999997
mp-622599,BaLaTaMnO6,0.9448
mp-675172,TaAlO4,1.8382000000000005
mp-11007,CaPSe3,2.1236
mp-31408,Al4(B2O5)3,5.8173
mp-1095547,ZrTi2Ni9,0.0
mp-541053,SiI2,2.2811
mp-776984,HoInO3,2.5765
mp-673669,In4(SnO4)3,0.8886000000000003
mp-552963,Pr2Ti2S2O5,0.8414999999999995
mp-27767,Li6Si2O7,4.9969
mp-763348,Li2MnF4,4.0445
mp-849330,Li2V2CrO6,0.0
mp-762416,Li13Mn8O24,0.002600000000000157
mp-24433,KHSeO3,4.2347
mp-765543,Sr3(RhO2)16,0.0
mp-1023935,Te2Mo,1.0703
mp-1080522,YSn3,0.0
mp-675002,La(CoP)2,0.0
mp-759901,Li3CuF6,0.8084
mp-1080124,CdCl4,0.0
mp-763018,FeOF,0.7462999999999997
mp-25486,CoH8(IO5)2,3.12
mp-632319,CsH,2.5693
mp-755027,In2Sn2O7,0.2812000000000001
mp-438,Nd2S3,1.0918
mp-16483,BaAl9Fe2,0.0
mvc-1200,CaMnO2,0.8195000000000001
mp-770545,LiAlCrO4,0.6509
mp-1079578,Tb(BC)2,0.0
mp-8435,Ta2PdS6,0.0
mp-756297,ZnIn2O4,1.1790999999999996
mp-1094141,LiNiO2,0.0
mp-1038971,Ce5Mg,0.0
mp-981375,HfMg3,0.0
mvc-10400,BaZnSbF7,4.3858
mp-1075399,Mg5Si6,0.0
mp-605691,La2P3H7O11,4.4891000000000005
mp-766118,BiP2O7,0.024299999999999992
mvc-4299,Al(SnO2)2,0.0
mp-706291,Ca2B8H2O15,5.576099999999999
mp-1094169,LaMg3,0.0
mp-697855,Li2Cr3(P2O7)2,2.7561000000000004
mp-765380,LiV5F11,2.248
mp-27300,RbAuBr3,0.8236
mp-567452,KFe(MoO4)2,2.4579
mp-745154,MnZn2Si(HO3)2,1.0539
mp-1097623,Ca2PdRh,0.0
mvc-3621,Mn2Zn3O7,0.4834000000000001
mp-644222,CdHClO,2.4635
mp-762682,Li4V2Fe5O12,1.0244999999999995
mp-974322,Ho3Mg,0.0
mp-12174,HfNi3,0.030400000000000205
mp-626193,Sc(HO)3,5.0212
mvc-3384,MgTiF5,0.2946
mp-651601,K2Fe2P2O7F2,2.1317000000000004
mp-571464,RbPSe3,1.1229999999999998
mp-752706,CeZr11O24,1.9568000000000003
mp-1784,CsF,5.2602
mp-1079029,Al2S3,2.653599999999999
mp-1028122,CaMg14Cd,0.0
mp-1078879,LiPrSn2,0.0
mp-730473,CuP2(H2O3)2,0.2287
mp-669419,Cs3Cu2(BiS2)5,0.4841999999999995
mvc-11916,Ca2La5Mn7NiO24,0.0
mp-12524,Al2W,0.0
mp-771533,CoPO4,0.8261
mp-614223,K2MnF6,3.1935
mp-23543,Hg5(BrO2)2,0.0
mp-676402,Ti8Cu3S16,0.0
mp-972021,SrInO3,0.0
mp-27812,RbTiI3,0.0
mp-774336,Li3BiS3,1.9514
mp-850739,Fe3OF5,1.4469
mp-568590,SbCNCl5,1.9435
mp-7857,TiB,0.0
mp-634900,SrUO4,2.0762
mp-22315,HfCoSn,0.0
mp-554201,MoF3,2.9582
mp-763526,LiP(WO4)2,1.8364
mp-8033,PuF3,0.007299999999999862
mp-1078884,HfSiRu,0.0
mp-691162,Pr2Mo15O28,0.7960000000000003
mp-862312,LiBePd2,0.0
mp-766902,LiMn2F7,1.7055000000000002
mp-31003,B10H13I,2.3907
mp-6660,BaNaBO3,3.6487
mp-684055,Tl7Bi3I16,2.2654
mp-623373,V7O13,0.6316000000000002
mp-770747,Na6Cr2As(CO4)4,0.0
mp-1094146,PC2,1.8369
mp-772548,SmCuO3,0.0
mvc-10491,CaSn4O9,0.7579000000000002
mp-6011,Ba4LiMo2N7,1.7645
mp-867232,TbAl3,0.0
mp-975509,RbBa3,0.0
mp-1031596,CsNaMg6O7,0.0
mp-17435,Zr4Fe4Si7,0.0
mp-28538,SiH3I,4.2153
mp-1009220,NaH,1.033
mp-1026981,Te3MoWS,0.012099999999999778
mp-1039189,Ce3Mg,0.002399999999999736
mp-505495,KP4N7,3.7455
mp-2375,NpPd3,0.006999999999999672
mp-1096853,Ba2NbFeO6,0.0
mp-989635,CaMoN3,0.8697000000000008
mp-1035697,KMg14FeO16,0.4818999999999996
mp-1072419,SmGe5,0.0
mp-12305,Sc11Os4,0.0
mp-1078952,Mg(N3Cl)2,0.0
mp-972657,SmBiAu2,0.0
mp-769629,Mn2V3P6WO24,0.0
mp-7739,Ba2ZnF6,4.732399999999998
mp-706518,TlCrO4,1.8656
mp-1032623,RbYMg6O8,0.0
mp-616140,Cs5SiAs3,0.8105000000000002
mp-1079893,BaTiSe3,0.0
mp-763185,Li2CrCo3O8,0.6122999999999998
mp-1019888,KNa2BN2,1.8152
mp-1023300,RbMg6Al,0.0
mp-772682,Dy2W2O9,3.1434
mp-7214,Sr3CrN4,1.5373
mp-693759,Zr12Si2Bi2P16PbO72,2.9575
mp-556288,Li2ReO3,0.0
mp-15902,Li2Ca2Ta3O10,0.0
mp-2364,PaO2,0.0
mp-16773,KTb(PO3)4,5.319
mp-1030104,Te6MoW3Se2,0.3418000000000001
mp-771043,Y2Zr2O7,4.0648
mp-977119,Li3Be,0.0
mp-1026509,BaMg14B,0.0
mp-8397,CsSrF3,6.4767
mp-672681,Nb8Zn4C3,0.0
mp-10026,ScTe,0.0
mp-767585,Li3Cr4(PO4)6,0.0
mp-767715,Li34(Sb3S2)3,0.0
mp-29334,K2PuCl5,0.08990000000000009
mp-756073,Rb2ZrO3,3.2835
mp-667498,Ba8CaY2U4O24,1.9303
mp-722780,Pr2P3(HO2)5,5.6653
mp-23053,PbICl,2.7152
mp-571415,Ba3(PSe4)2,1.1278
mp-1022606,HfMg6Zn,0.0
mp-1080399,ThB2Rh2C,0.0
mp-568942,Lu5NiPb3,0.0
mp-1062805,BaSb2,0.0
mp-28721,Pt(SCl4)2,1.9113
mp-766725,Zn3Co9O16,0.0
mp-633474,Rb2CoH12(SeO7)2,2.7729
mp-744775,NaFeP3H7O13,2.6593
mp-17612,Ba2SiO4,4.6289
mp-19816,Sm2In,0.0
mp-680381,K2Na2Gd4Nb2O13,3.1705
mp-4957,CaNbO3,0.0
mp-675042,Mg2TiO,0.0
mp-755311,NaLuO2,4.061
mp-984788,Ba4Er(RuO4)3,0.0
mp-765134,FeOF,0.0
mp-1056037,V,0.0
mp-697135,H2S,3.5201
mp-780089,Li3MnSi2O7,1.4716999999999998