mpid,formula,gap pbe
mp-22783,EuPAu,0.017900000000000027
mp-1019255,SmTlCd,0.0
mvc-2222,Mo(PO3)4,1.7985000000000002
mp-1097423,Y2SiPd,0.02839999999999998
mp-878,Ho2S3,1.4612999999999996
mp-560107,SbAs3(S2F3)2,2.3306
mp-762842,Li6FeNi9O20,0.0
mvc-16790,Y(TiS2)2,0.0
mvc-7682,BaYCuMoO5,0.0
mp-560964,K3Sm(AsS4)2,1.6795000000000002
mvc-2177,YV4(CuO4)3,0.0
mp-762399,Li2Cr(SiO3)2,2.4339
mp-626605,Al(HO)3,4.7793
mp-2031,Be2Cu,0.0
mp-6342,LiCa3RuO6,0.4675000000000002
mp-773594,YCrO4,0.7597
mp-542754,Tb2Si5Os3,0.0
mp-32758,Ag2Se,0.0
mp-1061772,MgNb2,0.0
mp-650929,Na2Ti9O19,2.1886
mp-21473,Gd(NiP)2,0.017800000000001148
mp-5219,Ho(SiOs)2,0.0
mp-18228,Ba3NaSi23,0.0
mp-1018101,AlCo3,0.0
mp-29778,Nd4Ge7,0.0
mp-570271,Ti4FeBi2,0.0
mp-767624,Li9V5(SiO8)2,1.6405000000000003
mp-690491,LiMnO2,0.9377999999999996
mp-645182,Sm2NiSn4,0.0
mp-531472,Li2UBr6,0.14149999999999996
mp-1073789,MgSi,0.0
mp-560146,Ba17Y16Zn8Pt4O57,2.2817
mvc-12040,CrO2,0.12249999999999996
mp-15121,RbFe2Te3,0.0
mp-769780,Gd6WO12,2.7825
mp-15205,Dy2Si5Ni3,0.0
mp-983480,Hf6Al16Rh7,0.0
mp-675143,Eu(GdS2)2,0.3659999999999997
mp-762977,Li2Cr4P4O15,2.0709000000000004
mp-1074700,Mg2Si,0.0
mp-1094596,LiMg3,0.0
mp-1026822,KMg14W,0.0
mp-622489,K4Zn(WO4)3,4.2269
mp-20979,TmMgIn,0.0
mp-1096254,MgCo2Ge,0.0
mp-32689,Pr2Se3,1.4255999999999998
mp-1093582,Ba2CdGe,0.06620000000000004
mp-753314,Eu2SeO2,0.0
mp-743699,Ca5Ho3Ti5Mn3O24,0.5537000000000001
mp-540211,Cr2(PO4)3,0.0020999999999999908
mp-1079548,YClO2,0.15680000000000005
mp-853157,Ni6OF11,0.8731000000000001
mp-20255,TiCuSi,0.0
mp-976884,PrBiPd2,0.0
mp-773537,Li4Ti3Cr3(WO8)2,0.0
mp-760255,Li3CuF6,0.7167000000000001
mp-774719,Ba4Nb3O12,0.0
mp-33737,Mn3Cu3O8,0.05180000000000007
mp-775489,CrP6(WO8)3,2.067
mp-553916,ZnS,2.0265
mp-29193,Nb2Se4O13,2.427
mp-774091,MnSb3(PO4)4,0.0
mp-961726,NbGeRh,0.0
mp-13447,Zn13Rh,0.0
mp-568234,Na4CaSn6,0.0
mp-743133,NiH12(BrO7)2,3.0380000000000003
mp-690672,K3NaFeCl6,0.5861999999999999
mp-752401,Rb2ZrO3,3.1698
mp-504783,Np2S3,0.0038000000000000256
mp-20594,CeS2,0.004100000000000215
mp-24708,ZnH8SO8,4.6838
mp-1020612,Sr2Si(S2O7)4,4.9136
mp-557531,Pb2S(O2F)2,3.7955
mvc-6075,Mg(SbO2)2,0.3266
mp-695648,KNa6Al7Si9O32,3.8663
mp-5165,Th(SiRu)2,0.0
mp-849370,Fe6OF11,1.8602
mp-655027,SrH6(CO3)2,3.3466
mp-542239,Cs5Hg19,0.0
mp-675473,Li7MnAs4,0.0
mp-1096171,AlZnCo2,0.0
mvc-2537,Ba2Ti2TlO7,0.13159999999999972
mp-764521,VOF,1.0949
mp-850037,MnS,0.8285999999999998
mp-4732,UGa5Co,0.0
mvc-8288,Ca3Fe4(MoO4)6,1.2851000000000004
mp-1028169,CaMg14C,0.0
mp-631529,BSe2Cl,0.0
mp-1032949,CaMg6CoO8,1.3336999999999994
mp-865492,LuCuPbSe3,1.0865
mp-771583,LiMn2O4,0.07849999999999957
mp-24726,TiH2,0.0
mp-1096475,Ba2TlPb,0.002299999999999969
mvc-5722,Ca(BiO2)2,1.885
mp-1038446,HfMg30GaO32,0.0
mp-556099,Yb3B5O12,0.0
mp-764313,KLiMnP3HO10,3.6249
mp-674412,Ce8U2O21,0.0
mp-1072633,LiTi(SeO)2,0.0
mp-28872,RbBrO3,4.1678
mp-778298,Li3V4O7F5,0.8786999999999998
mp-13128,Cu2As2O7,0.0
mp-865710,LiSnAu2,0.0
mp-777661,Li5Mn8(BO3)8,0.5302000000000002
mp-10321,La2ZnRhO6,0.0
mvc-11755,MgV2S5,0.0
mp-571322,Nb3Ge,0.0
mp-30761,Li7Pb2,0.0
mp-978092,PrCuGe2,0.0
mp-1894,WC,0.0
mp-1035212,LiHfMg14O15,0.0
mp-781016,Li14Fe4O13,2.3295
mvc-5045,VZn2WO6,1.6694999999999998
mp-776715,Li3Fe2F7,3.377
mp-721287,Na3AsH14SO10,3.2541
mp-31268,AlBiBr6,2.6005000000000003
mp-585476,Cs7Np3(Cl2O)6,0.0
mp-10091,KV(CuSe2)2,0.8213000000000004
mp-672356,MnSbPt,0.0
mp-767529,Na2TbPCO7,4.5215
mp-771890,LiSnAsCO7,1.9866
mp-38683,Co2NiO4,0.6147
mp-667192,La4C5Cl2,0.0
mp-765865,CrCo3O8,0.7265000000000001
mvc-6562,Y(WF5)3,3.4277
mp-11104,HoInRh,0.0
mp-1030270,TeMoWS3,0.4432999999999998
mvc-7688,BaAlCuMoO5,0.0
mp-862743,LaCdAu2,0.0
mp-1021848,KMg6V,0.0
mp-557606,SbAs3(Se2F3)2,1.8713
mp-630799,K3EuV2O8,3.4685
mvc-11527,YTi2O4,0.002299999999999969
mp-1067398,CrH,0.0
mp-558056,AlPO4,5.4806
mp-32009,Mn2BO4,0.5519000000000003
mp-1095020,Ce2Mg,0.0
mp-30156,LiMgN,2.6951000000000005
mp-775112,Li2CoSnO4,1.7113999999999994
mp-20363,LiGa2Pt,0.0
mp-567336,CdI2,2.3508
mp-1079701,UCoC2,0.0
mp-541040,Y2Be2GeO7,4.540100000000002
mp-777614,Li32Ti3Cr13O48,1.1043000000000005
mp-6764,BaSi2(NO)2,3.0104999999999995
mp-862836,PmAlAu2,0.0
mp-706631,Na2B3HO6,4.6148
mvc-11094,CaLa2VO6,1.7626000000000008
mp-704995,LiMnGaF6,3.9343
mp-1016272,Mg7C,0.0
mp-780004,Fe5O3F7,1.2436
mp-1078328,LaBiS2O,0.2709999999999999
mp-773204,Li4Cr5Fe3O16,0.0
mp-694318,In2(WO4)3,4.2477
mp-763884,Cr2O5F2,2.3236
mp-20151,Eu(AlGe)2,0.0
mp-1094264,Sr2Mg,0.0
mp-1097262,LaMgAu2,0.2422
mvc-15909,AlFeO3,1.6813000000000002
mp-569020,InSb,0.0
mp-1031405,Mg6TiCdO8,0.0
mp-1064840,BiS,0.0
mp-29602,K2ZrTe3,0.41100000000000003
mp-524,Ba3As14,1.1763
mp-570037,CoAu2(CN)4,0.9239
mp-1017000,MgZrO3,0.6316999999999999
mp-631565,GaAs2W,0.0
mp-981530,YbPrPd2,0.0
mp-864790,Nd2BC,0.0
mp-777630,Li2CrP2O7,2.201
mp-2584,TbFe3,0.0034000000000000696
mp-1009547,CsRbAs,0.0
mp-676431,Na4Al3Si9ClO24,4.5204
mp-14000,UCdO4,1.9388
mp-30776,PrMg12,0.0
mp-762834,LiTi2Co3O10,0.1898
mp-27694,H3ClO5,5.4698
mp-9794,Rb2GeSe3,1.4778
mp-581955,CsSi2SbO7,3.2271
mp-974882,Rb3Mo,0.0
mp-1094185,HfMg3,0.0
mp-31548,LiCoP2O7,1.0428000000000002
mp-979114,Th3U,0.0
mp-779085,LiMn2F5,3.2036
mp-551835,Ba2I2O,3.1127
mp-1016321,SrMg6Nb,0.0
mp-996990,BaAgO2,0.0
mp-685090,Ga2O3,0.005800000000000249
mp-1026640,RbSrMg14,0.0
mp-1061530,RbSe,0.0
mp-1084774,BaNdCo2O5,0.0
mp-624186,La9B3C6Br5,0.0
mp-1038590,Mg30NbCO32,0.3151999999999999
mp-849783,TeH14C3S3(N3F2)2,2.2372
mp-556689,KZrF5,5.5642
mp-1098967,HfMg30VO32,0.0
mp-565797,CsV(SO4)2,2.0301
mp-1026812,RbCeMg14,0.0
mp-775170,Li2AlCr2SbO8,2.0373
mp-30200,Bi2CO5,1.0710999999999995
mp-31959,Li2MnP2O7,4.1428
mp-771375,Li2FePCO7,2.4902
mp-572543,CsPr(PO3)4,5.4728
mp-24799,Cs3B12H12Cl,4.9577
mvc-13858,YAgO3,0.07339999999999991
mp-765833,Li6Fe5NiO12,0.0
mp-1033427,Mg6NbCrO8,0.0
mp-1013939,TiSF,0.0
mp-744366,K2FeH8(SO6)2,4.5786
mp-566830,K4Th(MoO4)4,4.0045
mp-865927,AcTiO3,0.0
mp-773340,Li2TiMnO4,0.3901000000000003
mp-1094784,CaZn3,0.0
mp-3734,NdSi2Ni,0.0
mp-1096464,TlHg2Pb,0.0
mp-853227,Mn15NiO32,1.1139
mp-767903,Li3VPCO7,2.4336
mp-505525,Nb4Zn2C,0.0
mp-851018,Li5Mn6(BO3)6,0.0
mp-756521,BaNa2O2,1.6583
mp-770975,Li4Cr5FeO12,0.021399999999999864
mvc-9587,Ca(BiO2)2,1.5930000000000002
mvc-10350,Ca(NiO2)2,0.0
mp-29063,ThZrF8,5.6773
mp-1027501,Te2Mo3W(SeS2)2,0.0
mp-28532,CrInBr3,0.5498000000000003
mp-7582,GeS2,2.5744
mp-755802,K2MgO2,2.5286
mp-1018880,PaSb2,0.0
mp-1097344,CuHgPd2,0.16380000000000014
mp-1059621,KSe,0.0
mp-13053,SrSi,0.0
mp-510347,In5S5Br,1.1099999999999994
mp-779742,Cs2ZnH12(SeO7)2,3.767
mp-21527,Na2ScCuF7,0.04570000000000002
mvc-10057,MgCr2(PO4)2,2.2474
mp-774715,Ba4LiNb3O12,2.4458
mp-1096059,LaScRu2,0.0
mp-10270,ScCo3C,0.0
mp-705312,LiFePO4,3.551
mp-863869,Li3Mn3FeO8,0.08309999999999995
mp-1077295,YbAlGa,0.0
mp-552547,SrBiIO2,2.8643
mp-541851,Ce2(Ni7B2)3,0.008599999999999497
mp-765169,Li5V3P8O29,1.0693
mp-766759,Li2Fe2P2O9,1.6646
mp-19608,SnWO4,3.8370000000000006
mp-1027391,MoWSeS3,0.5973999999999999
mp-862932,ThInAg2,0.0
mp-567666,Ba3BiN,0.6466000000000003
mp-1095921,LiZn2Ag,1.0189
mp-3463,CaTi2O4,0.0
mp-764394,Li3Mn5OF11,2.4186
mp-1077901,InCo3SnS2,0.2382
mp-1093967,Al2CuRh,0.2084999999999999
mp-510452,CeHSO5,0.01970000000000028
mp-976581,Nd3I,0.0
mp-8633,Cr,0.0
mp-18065,BaCaAlF7,7.1876
mvc-10532,MgV3P3O13,1.2704
mp-865260,Lu2ZnIr,0.0
mp-30025,DyBr2,0.0
mp-29863,AsCl3O,2.5098
mp-6916,Sm(BC)2,0.0
mp-754586,Li8BiO6,0.0
mp-560086,Nd4(GeS4)3,1.9953
mp-1029857,Rb3W2N5,2.0278
mp-861876,LiAc2Si,0.0
mp-850757,Fe3OF5,1.5957
mp-1096905,Ce4Al2O9,0.029399999999999867
mp-754236,Y2GeO5,3.7067
mp-1027576,TeMo2Se2S,0.0
mp-8628,Te4Pt3,0.0
mp-581951,Zn53Ni16,0.0
mp-578795,Na2FeCuF7,0.0
mp-780522,LiVP3H8O13,2.7241
mp-1058,PdF2,0.0
mvc-6402,Zn(CoO2)2,0.17079999999999984
mp-6416,Ba5Er8Zn4O21,3.547400000000001
mp-775328,Li2TiNi3O8,0.6650999999999998
mp-1076915,Gd,0.0
mp-12975,Sm2CdPd2,0.0
mp-5517,Tb(NiP)2,0.0
mvc-4550,Ca3Fe2(Si2O7)2,2.2007000000000003
mvc-8918,CaTi3O7,2.854
mp-1078392,YSb(PbO3)2,2.2945
mp-1075132,Mg3Si4,0.0
mp-600423,V2Cu5(HO3)4,0.1921000000000004
mp-559175,WO3,1.1401
mp-554566,BaLiCoF6,2.2721
mp-780511,Mn12O5F19,0.16710000000000005
mp-867919,ErNbRu2,0.0
mp-770231,Li4Cr3NiO8,0.0
mp-645938,Li5VP2O9,0.003499999999999837
mp-861976,PaGaFe2,0.0
mp-769239,CeReO4,0.0
mp-703370,Ca13Si10H12(O17F5)2,5.0307
mp-862261,Sc2ZnRu,0.0
mp-542514,Ho2Te4O11,3.2459
mp-32334,NiP2O7,0.020499999999999963
mp-573449,CsYbCoSe3,0.0
mp-780332,Li2VP4(HO2)8,2.7263
mp-25748,FeNi2BO5,1.8488
mp-542178,Nd2Zn15Ge2,0.0
mp-976333,Li2AcTl,0.0
mp-626701,Mn(HO)2,1.7222000000000002
mp-558965,Gd4Si2Se3O7,1.0750000000000002
mp-1080265,CeSe2,0.9281
mp-1028570,Te2MoW3(Se2S)2,0.0
mp-1039273,CaMg5,0.0
mp-755950,Ba2Sc2O5,2.7100000000000004
mp-625404,AlHO2,5.495400000000001
mp-1077097,YbZnPb,0.0
mp-29824,La3RuI3,0.013099999999999673
mp-1080113,ScFeC2,0.0
mvc-8847,TaBiO5,0.7699
mp-1023263,KCaMg6,0.0
mp-505707,Tb2Mo4O15,3.3306
mp-1096236,Ba2GaHg,0.0
mp-754538,HgPtO2,0.0
mp-11449,HfMn2,0.0
mp-555369,SrCuH6O5,0.6365000000000001
mp-780436,Li8Mn5Fe3(BO3)8,3.0049
mp-1097170,Be2IrRu,0.0
mp-675395,H(CO)2,2.8322
mp-753627,LiTiP2O7,0.10190000000000056
mp-654080,La5(Mo16O27)2,0.04870000000000019
mvc-14277,AlNiO3,0.5045000000000002
mp-625941,Te(HO)6,1.9116
mp-1098323,SrCeMg6,0.0
mp-1001835,LiB,0.0
mp-973634,Ho(AlC)3,0.0
mp-8123,TmCuSi,0.0
mp-861909,CdGaRh2,0.0
mp-627043,Ba(HO)2,4.4174
mp-35404,Na2CeO3,2.1042
mp-1028594,Te4MoW,0.5339
mp-9595,NbInO4,3.0227
mp-638632,ErCoO3,1.4434000000000005
mp-1098377,KCeMg30O32,0.0
mp-1016827,MgGeO3,1.0860999999999992
mp-1018157,CrN,0.0
mp-765784,Li2CrCoO4,0.010699999999999932
mp-769864,Cs2NiO2,2.6343
mp-1070256,Mn2ZnAs2,0.0
mp-709885,Rb4LiH3(SO4)4,4.0899
mp-1016329,SrMg6Nb,0.0
mp-1096899,CrN2,0.115
mp-37550,Mg2Ta3N5,0.0
mp-775606,Li4Mn3Co2Sn3O16,0.0
mvc-904,TiZnP2O7,0.0
mvc-13226,FeSiO4,0.0
mp-5694,NaHoS2,2.3055000000000003
mp-1037710,KYMg30O32,4.3245000000000005
mp-558491,BaAlBO3F2,6.0642000000000005
mp-680772,Sb5IO7,1.2704000000000004
mp-34038,Li6NCl3,1.3509000000000002
mp-505732,FeCoH18(CN2)6,2.287
mp-708038,H18Se3(NO3)4,1.1293
mp-981209,Ti3Ni,0.0
mp-9206,CsAg5Te3,0.020099999999999785
mp-27753,In2(PS3)3,1.4261
mp-764196,Li2VO3F,2.452
mp-505806,CsC,3.1051
mp-1080266,CeSe2,0.9527
mp-625937,H7NO6,3.3381
mp-755142,La2MgO4,3.3754000000000013
mp-17929,RbHo2Cu3S5,1.4781999999999993
mp-761457,Li4Fe(PO3)6,4.220700000000001
mp-581967,Nb2O5,1.6713
mp-705896,MgVFeMo3O14,2.3731
mvc-13592,YV3O9,1.5385000000000002
mp-9138,RbPO3,4.7607
mp-676104,Tm2CuO4,0.0
mp-1077365,YTe2,0.0
mp-31460,NbCoSb,0.0
mp-977428,YbAl2Cu,0.0
mp-632172,H2,9.3264
mp-697809,LiFe2(PO4)3,0.08079999999999997
mp-707068,KH8O4F,5.1545000000000005
mp-18567,CaZn11,0.0
mp-631581,Ag2BBr,0.0
mp-756458,ErAlO3,5.803000000000001
mp-1030658,NaMg6GaO8,2.1919
mp-702,CeHg,0.0
mp-10990,Al4CN3O,0.2418
mp-775449,Li2Mn(SiO3)2,3.0724000000000005
mp-773526,Na3Cr(BO3)2,2.7158
mp-556084,KClO3,5.5613
mp-30650,Mg2Ga,0.0
mp-18856,MoO3,1.3723
mp-685414,Tb11CuSe16,0.0
mp-17620,TmBO3,2.3564
mp-567447,NaVO3,3.0726
mp-1098848,SrMg30CuO32,0.4104000000000001
mp-694963,Sr7SmFe4(MoO6)4,0.8102
mp-19875,GdSiRu,0.0041999999999999815
mp-1849,Mn2P,0.0
mp-1099335,BaMg6Si,0.0
mp-3481,KSnAs,0.3552
mp-676693,KCN,1.2299
mp-30914,UAl4Co,0.0
mp-1078814,Ce2C2Cl,0.0
mp-862938,PmMgHg2,0.0
mp-23056,Sr2BrN,1.8455
mp-989737,Ag,0.0
mvc-10055,CaMo2P2O9,2.7485000000000004
mp-643941,CaAl2Si(HO2)4,4.690799999999999
mp-570807,Sr4In13Au9,0.0
mvc-7266,Mg(CuO2)2,0.0
mp-672979,LiBiP2O7,4.4057
mp-1026426,Mg14BC,0.0
mp-607806,Ho3Se3N,1.5205000000000002
mp-865933,LiSiIr2,0.0
mp-1016595,Mg6NbCr,0.0
mp-8953,YbAsPd,0.0
mp-1029779,ZnGeN2,1.5235
mp-558329,V2Se2O9,2.1685000000000003
mp-861498,Pr2HgPb,0.0
mp-7388,NaAuF4,2.1333
mp-31483,Na5TlSn3,0.05259999999999998
mp-540022,MnPO4,0.5879999999999999
mp-757826,CsCa(NO2)3,2.6181
mp-639682,SiO2,5.6453
mp-6800,KLiSO4,5.325
mp-1021691,LiMg6V,0.0
mp-770465,Ba4Ce2O7,0.0
mp-554769,MoSBr,0.7938000000000001
mp-13108,SrHfO3,3.7328
mp-11234,PrMg2Ag,0.0
mp-766932,Mn5O7F,0.0
mp-1069471,Sr(ZnP)2,0.8239999999999994
mp-722245,K2H2C2S2N2O,2.3712000000000004
mp-1016635,Mg6CrBi,0.0
mp-2516,YZn,0.0
mp-25688,Li2FePO4F,4.2076
mvc-10959,VBiO5,0.0
mp-19206,LiLa4CoO8,1.444399999999999
mp-571583,CdI2,2.3623000000000003
mp-753946,LiCoS2,0.6646000000000001
mp-2063,Pr2O3,3.8392
mp-1018671,CeZnGa,0.0
mp-776911,MgO,3.4257
mp-1027818,TeMo2Se3,0.0
mp-1068559,LaCoSi3,0.0
mp-975424,Rb(Mg4Al3)4,0.0
mp-1026664,RbMg14B,0.0
mp-775105,Li2MnFeO4,0.0
mvc-11848,CaBiAsO6,0.5539999999999998
mvc-8996,CaSb3O7,0.0
mvc-5322,SnP2O7,2.3912000000000004
mp-1080080,LaAlO3,3.5544
mp-17173,Rh2S3,0.19459999999999944
mp-775843,Zr2N2O,1.6504000000000003
mp-776011,Cr2Fe3Ni(PO4)6,0.0
mp-773554,LiMnP2HO7,3.7928
mp-680653,Yb8In3,0.0
mp-572951,CsNaSi2O5,4.4582
mp-510654,Cu2PHO5,0.0
mp-764049,V6O5F19,2.2316
mp-543028,Tl2TeO3,1.9408000000000003
mp-510065,CsNdHgSe3,1.3561000000000003
mp-975138,RbWO3,0.0
mp-980646,TmSi3,0.0
mp-979961,Yb2AgHg,0.0
mp-767559,LiMn2(PO5)2,0.0504
mp-35432,Cr2FeO4,0.010699999999999932
mp-31406,Bi2TeSe2,0.9435000000000002
mp-1098793,Mg30ZnCoO32,2.4517000000000007
mp-779166,LiCo3NiO8,0.0
mp-18247,Sr3ScRhO6,2.2663999999999995
mp-1096087,LiYIn2,0.0
mp-853173,K2Mn3H10S4O21,4.0642
mp-5788,NaUO3,0.4047000000000001
mp-569610,CoI2,0.0
mp-1018142,NbN,0.0
mp-761604,Li4MnP2O9,1.0964999999999998
mp-1077622,EuAgO3,0.0
mp-567157,Ba7Na5Li3N3,0.0
mp-566845,Cr(PO3)3,3.3268
mp-40201,Na8Be3Si9(ClO12)2,4.273
mp-765806,ZnCoO3,0.0
mp-1039892,Mg30CrSiO32,1.9656
mp-20687,Sr2LuRuO6,0.0
mp-761749,CoP2WO8,2.3401
mp-772564,NiH8(CO5)2,1.2385
mvc-3359,Ca3Bi2O7,0.0
mp-14390,Na3GaP8O23,5.0014
mp-773378,Li6V3P8O29,1.1178
mp-773221,Li5Cr2Co5O12,0.0
mp-3566,Ce(SiRu)2,0.0
mp-33537,Fe2MoO4,1.5368
mp-862813,PaPbAu2,0.0
mp-1096552,Li2ZnIn,0.03200000000000003
mp-768702,Ta2Zn4O9,2.9471
mp-1037929,CaMg30CO32,2.8575
mp-683937,Ni13Sn8P3,0.0
mp-665231,MoBr3,0.6926
mp-1035073,Mg14VCoO16,0.0
mp-10872,HfAlAu2,0.0
mp-542435,Li3ScN2,2.2440999999999995
mvc-10706,Mg(SbO2)4,1.4002
mvc-8025,MgAs2WO7,2.7749
mp-19254,FeSO4,4.27
mp-29249,GeAsSe,1.4624
mp-764678,LiFe2(BO3)2,1.8209
mp-697170,MgH6(BrN)2,4.1225
mp-687247,K5YCo2(NO2)12,0.09430000000000004
mp-560029,Y3BrO4,4.2046
mp-767414,K2HoPCO7,4.452
mp-10762,Cd3As2,0.14979999999999993
mp-34465,Li2HN,2.7661
mp-504228,Li3Ni2(PO4)3,0.01110000000000011
mp-868280,LiNi4(PO4)3,2.2887
mp-1025253,Tb(TiGa2)2,0.0
mp-755355,La2Pr2O7,0.0
mp-632491,Li(NiO2)2,0.0
mp-1097036,Li3PS4,2.3921
mp-27517,Rb2CoI4,0.6584999999999999
mp-5643,Yb2FeS4,0.0
mp-695250,BaLa7Mg5Nb3O24,3.0726000000000004
mvc-16782,Mg(FeS2)2,0.0
mp-4693,RbAlF4,6.9438
mp-6698,Th2Cu(PO4)3,2.924300000000001
mp-615529,Os2Pt(CO)10,2.5877
mvc-12906,Ba2YFe3O8,0.0
mp-851073,NaCaFe3(PO4)4,2.2436
mp-1087242,CeSe2,0.9806
mp-756897,DyTe3O8,0.0
mp-1093900,Zn2AgPt,0.0
mp-23384,LiIO3,3.8212
mp-684890,Tb4F15,0.0
mp-1097097,Hf2AlRe,0.0
mp-776639,Li4Ti3Cr3(FeO8)2,0.7337000000000002
mp-30061,Sn4BRh6,0.0
mp-13590,LiB(CN)4,6.3482
mp-1017441,SrRhO3,0.0
mp-1073075,Mg2Si3,0.0
mp-850984,MnOF,0.0
mp-651175,CeSiNO2,0.0
mp-744474,Mo2P4O15,0.009600000000000051
mp-932,ScGa3,0.0
mp-686110,Li(ReO3)5,0.0
mp-558236,BaNd2CoS5,0.0
mp-10558,La3(NbN3)2,0.0
mvc-2616,Ba2Tl2Zn2Cu3O10,0.0
mp-568596,SmInAu2,0.0
mp-755529,SbPHO5,2.0280000000000005
mp-1027461,Te2Mo3W(Se2S)2,0.0
mp-1073904,Mg6Si5,0.0
mp-690563,Co2NiO4,0.0
mp-759835,CeMgAu,0.0
mp-972238,Ti2VIr,0.0
mp-1036835,BaMg30NiO32,3.234
mp-866073,MgSnRh2,0.0
mp-554542,Mg3B(OF)3,5.4165
mvc-1323,BaYFe4O7,1.4460000000000002
mp-973875,Ga3Ge,0.0
mp-19,Te,0.1856
mp-20240,YbIn2Pd,0.0
mp-1073663,MgSi2,0.0
mp-1009086,BeSnP2,0.9218000000000002
mp-565435,Bi2MoO6,2.1293
mp-20660,NpAl2,0.006199999999999761
mp-23572,KBiP2S7,2.444500000000001
mp-1097110,YScAg2,0.07419999999999982
mp-996982,AgBiO2,1.1408
mp-1093700,CaYPt2,0.0
mp-770114,Mn2PO5,0.0
mp-866641,K2Na(H2N)3,2.11
mp-6246,Ca2CO3F2,5.14
mp-7724,Li2UO4,2.0658000000000003
mp-569211,NdFeSb3,0.0
mp-565854,RbNd(WO4)2,3.3858999999999995
mp-8044,V2PC,0.0
mp-978277,Mg3Cr,0.0
mp-853145,Mn4O7F,0.0
mp-764968,InPH5NO5,3.5128000000000004
mp-32667,SiO2,5.3845
mp-850407,LiMnP(H6O5)2,4.1674
mp-1005760,Tl3Os,0.0
mp-1097072,HfMgCo2,0.0
mp-1095058,Er(BC)2,0.0
mvc-4222,Ge3(TeO6)2,2.0875000000000004
mp-1027863,Mg14ZrGa,0.0
mp-1017117,Mg6SbC,0.0
mp-25499,CrO2,0.0
mp-1026974,MoWSe3S,0.6717
mp-542116,CsAl(MoO4)2,3.8773
mp-1094677,MgBi2,0.0
mp-569018,Mg3Bi2,0.0
mp-28643,H9CN9,4.5704
mp-28712,Si2Hg6O7,1.4980000000000002
mp-541553,La10Os2I15,0.0
mp-768100,Li4Ti3Mn4Cr2O18,0.4306999999999999
mp-778828,Mn3O5F,0.0
mp-1097269,HfBeIr2,0.0
mp-1093693,HfTlAu2,0.0
mvc-16210,ZnBi6P2O15,2.7511
mp-510276,SmTl(WO4)2,2.744
mp-567002,KMoIO6,3.0051
mp-868574,LiVCrP2(O4F)2,1.4584
mp-774859,LiNbPO5,0.0
mp-567914,TeI4,1.769
mp-20350,DyCoC,0.0
mp-767014,Na5(WO3)6,0.0
mp-1080312,CeSe2,0.05880000000000062
mp-771902,Li4Ti3Cr2Fe3O16,0.0
mp-764909,Li5Mn3Cr(PO4)4,0.2708000000000004
mp-1096241,MgSc2Ag,0.0
mp-13923,SnPS3,2.1282
mp-764388,Li8Co3NiO8,1.9618
mp-560645,Ca2NbInO6,3.4348
mp-1097503,Ca2TlSn,0.0
mp-866291,AgBr,1.1709
mp-766631,Li4Co3Cu3(TeO8)2,0.0
mp-17441,Mg2GeS4,2.311
mp-1028366,KMg14Ni,0.0
mp-631436,VOsCl,0.0
mp-21491,Y3GaCo3,0.0
mp-20534,GdMg3,0.002200000000000202
mvc-4934,ZnNiO2,0.6461999999999999
mp-644307,Ca(H2N)2,2.6985
mvc-15177,La2ZnSnO6,3.0844
mp-777699,V3O5F,0.3631000000000002
mp-997509,Co2(CO3)3,0.7647999999999999
mp-1068286,Ca2CdPd2,0.0
mp-766417,Ba10Cu5O17,0.0
mp-19270,TiFeO3,2.0653999999999995
mp-616204,Ga3Cl7,4.1427
mp-773587,AlNiH16N(OF)6,5.371
mp-762232,LiCoSiO4,1.1803
mp-1098558,Mg30CrCdO32,1.327
mp-1027855,BaMg14Zr,0.0
mvc-5335,ZnCr2O4,0.7243999999999997
mp-862654,LaGaAu2,0.0
mp-1036613,Mg14AlCoO16,0.7702
mp-766396,Ti(PO3)4,2.4201
mvc-4097,Al2Si3(SnO4)3,2.4566
mp-13765,Ce3Co11B4,0.0
mp-1022069,Mg6NbCu,0.0
mp-686055,Sr3Pr4O9,2.3406
mp-738609,LiH20C8BrO4,4.6456
mp-10753,Er,0.0
mp-7870,GdO,0.0
mp-1079600,Cs2S3,1.3989999999999998
mp-776056,Mn3Cr2Sb(PO4)6,0.0
mp-1016849,CdRuO3,0.0
mp-16358,ZnNi2Ge,0.0
mp-644334,K2CoH4(SeO5)2,2.9347000000000003
mp-1091415,Ge,0.060999999999999936
mp-42508,Na4BeAlSi4ClO12,4.276599999999998
mp-24145,CuP2H8CN2O5,0.4270000000000001
mp-7127,Ba2YbTaO6,0.0
mvc-4981,Mg2CrWO6,1.8806000000000005
mp-777152,Li3Co2(GeO4)2,0.0
mp-715178,FeO2,0.0
mp-1031243,KMg6GaO8,0.4012000000000002
mp-19356,YbMnO3,0.0
mp-778616,VO2F,1.4668
mp-19449,NaVCdO4,3.0267
mp-581453,Rb6U5V2O23,1.7618999999999998
mp-568985,La2B3Br,0.0
mp-768459,Ti2(SO4)3,0.0
mp-707517,RbUP2H8O11,0.09939999999999992
mp-762266,Li2Cu2F7,0.0
mp-780181,Na2Cr4O13,1.7377
mp-1096395,LiMgPb2,0.0
mp-29998,La3SbI3,0.0
mp-1033550,RbMg6GaO8,0.0
mp-763845,V3O7F,1.2538
mp-1027511,Te2MoWSeS,0.014800000000000146
mp-642332,Nd11In9Pd4,0.0
mp-573358,CsBSe3,1.7009999999999998
mp-631468,SrScBe,0.0
mp-1013643,Sr3BiP,0.0
mp-627314,Si2H2O3,1.7578
mp-1025100,LaGe5,0.0
mp-1038344,Mg30AlCoO32,1.5146000000000006
mp-743549,Fe3P8H26NO36,1.3934000000000002
mvc-2547,V5O7,0.5505999999999998
mp-651279,Co4Si(CO)14,2.5423
mp-1028220,Mg14AlW,0.0
mp-2016,PrNi2,0.06440000000000001
mp-1022547,KMg6Fe,0.0
mp-22859,HgI,1.6513
mp-773689,NaLi2FePCO7,3.8388
mp-11875,CO,6.1315
mp-849754,Li2Cu(PO3)4,0.1785000000000001
mp-695816,LiFeP2O7,2.4343
mp-505678,Sr2CoClO3,0.08659999999999979
mp-863751,Pr3SiAgS7,1.7612000000000003
mvc-9076,ZnNiP2WO9,0.0
mp-22361,CeReB4,0.0
mp-761290,Mn5O8,0.0
mp-1074320,Mg4Si3,0.0
mp-776331,Zr5N5O2,0.0
mp-651039,Ba2Fe3F10,3.4796
mp-1094189,Mg5Sn,0.0
mp-718,SnPd3,0.0
mp-1039895,RbMg30BO31,2.6766999999999994
mvc-9671,PrZn(MoO3)2,1.1840000000000002
mp-773175,NaCrCSO7,2.266
mp-1087546,O2,1.6116
mp-853268,Fe10O9F11,0.4756
mp-1010953,MgNi,0.0
mp-31923,LiMnPO4,3.4704
mp-763551,Mn2VO4,0.0
mp-773271,Co(CuO2)4,0.0
mp-690564,La2Mn3PbO9,0.0
mp-20837,Gd(MnGe)2,0.003599999999999603
mp-652068,KS2N(O2F)2,5.4511
mp-1097979,NdCd2,0.0
mp-1097041,IrO3,0.0
mp-986716,Sr3N2,0.3481000000000001
mp-31596,CoReO4,0.0
mp-998711,TlGeF3,3.3593
mp-758223,Bi11PO20,0.0
mp-773446,Na5LiFe2P2(CO7)2,3.6147
mp-1036504,CsMg14AlO16,0.0
mp-17488,Tl2Fe3S4,0.0
mp-1030565,MoWSe4,1.1418
mp-1026972,Te4Mo3W(SeS)2,0.04579999999999984
mp-29584,K4BeAs2,0.8851000000000001
mp-985591,Li6PS5Br,2.1276
mp-764963,Li2CoSi3O8,3.1591
mp-558759,Cd4Te6Cl6O13,3.3117
mp-766918,LiMnF5,1.388
mp-640827,YbMn4(CuO4)3,0.0