mpid,formula,gap pbe
mp-769848,Li4Mn5Sb3O16,0.0
mp-773409,NaLi5Fe2P2(CO7)2,4.0342
mp-1079659,Ta(BMo)2,0.0
mp-625402,Sm(HO)3,3.7105
mp-771187,Li6Fe3Ni(PO4)6,0.0
mp-1096785,Al2Zn2S5,1.2564000000000002
mp-1016637,Mg6CrGa,0.0
mp-676368,Rb4N2O7,0.6474
mp-30766,Li5Sn2,0.1448999999999998
mp-1021420,KLaMg6,0.0
mp-566772,Cr3B7IO13,1.9640000000000004
mp-24109,NaP(HO2)2,5.2635000000000005
mp-771202,Li4Co5SnO12,0.0
mp-764195,Li3V2OF7,2.1573
mp-764958,Li2CoSiO4,2.9336
mp-972384,V2Se2O11,2.1709
mp-1035739,HfMg14ZnO16,0.0
mp-7374,Ba(CuO)2,1.3793000000000002
mp-698594,Sm2Mo2O7,0.2610000000000001
mp-1098888,KMg30CoO32,1.5404999999999998
mp-607031,V2PbO6,2.2564999999999995
mp-545541,Na4CO4,1.6256999999999997
mp-768027,Na2MnPCO7,0.7401000000000001
mvc-6040,Zn(WO2)2,0.0
mp-849404,Na3FeO4,0.14390000000000006
mp-772125,NbPO5,2.9960000000000004
mp-697981,Cd3H2CSeO8,2.763
mp-1479,BP,1.2435
mp-973586,Lu(AlC)3,0.15270000000000028
mp-555529,LiCaCoF6,0.0
mvc-6537,Ca(AgO2)2,0.0
mp-638442,Gd2Al6Si4Au,0.0
mp-33723,BiTeBr,1.2233
mvc-1311,P2WO7,2.7679
mp-774863,LiNi9S10,0.0
mp-18962,Sr2CaMoO6,2.2555
mp-21742,Ba5AlIr2O11,0.0
mp-570438,Yb8Tl3,0.0
mp-540227,Li2Mo(PO4)2,1.6707999999999998
mp-510264,KY(WO4)2,3.2428
mp-768870,Ca(ClO3)2,4.7209
mp-10928,BaC2(SN)2,3.9015
mvc-5742,Ca(AgO2)2,0.0
mp-540075,Li4MoP2O9,1.6833999999999998
mp-694944,Fe2NiO4,2.012
mp-559415,Na2Cu2Si4O11,0.9125
mp-2272,Sr6Li23,0.0
mp-568819,Bi20(PtBr12)3,1.2284000000000002
mp-649091,MoPNCl6O,2.1536
mp-540200,LiCr(PO3)4,2.7786
mp-21191,USiPd,0.0
mp-1077933,GdCu2,0.0
mp-29834,Cs4SiSe4,2.3269
mp-605406,RbU2H5C4O15,2.1541
mvc-486,Nb2WO8,2.3898
mp-1035249,Mg14CuSiO16,0.0
mp-40186,LiCaPrTeO6,3.3167
mp-29500,Ge7F16,4.3804
mp-674320,Ce9DyO20,0.0
mp-775618,Li2TiV5O12,0.6604000000000001
mp-675941,Li7IN2,1.6664
mp-540345,Cr2(PO4)3,0.01549999999999996
mvc-16616,Y(VS2)2,0.0
mp-1029626,Ba3IrN3,0.0
mp-20622,SiPd3,0.0
mp-1097303,GaReGe2,0.0
mp-780183,Fe2OF3,1.2707000000000002
mp-1099062,Mg14MnVO16,1.2632000000000003
mp-1076651,Sr7CaMn3Fe5O24,0.0
mp-778375,La2Nb2N2O5,1.6052999999999995
mp-572512,Cs2LaTa6(Br5O)3,1.1799
mp-1096967,FeF3,3.0008000000000004
mvc-2941,CaFeO2,1.3405
mp-30817,LiAl2Pd,0.0
mp-556156,LiUBO5,1.9059
mp-1022127,HfMg6Fe,0.0
mp-770691,Li3AlFeO5,0.2058
mp-540995,Rb5Nb3OF18,3.9867
mp-1040364,Mg30TiNbO32,0.2586999999999993
mp-5274,ThTi2O6,2.9199
mp-775527,CaV5H19O23,2.3427
mp-626087,Mo2HO6,0.0
mp-850945,Li47(NiO4)8,1.067
mp-645364,Sr(PN2)2,4.264099999999999
mp-1022457,Mg6TiFe,0.0
mp-1031881,Mg6TiNiO8,0.0
mvc-1136,CaCoO2,1.8656
mp-764061,Na6CoO4,0.7895999999999996
mp-9856,Cs2ZrSe3,1.3713
mp-19156,BaMnO3,1.9175
mp-693432,Ti2H2CSe4Cl16O5,0.0060999999999999934
mp-2178,YbGa2,0.0
mp-554649,Na3NiF6,2.4967
mp-21063,U4S3,0.014199999999998882
mp-1019708,CsBaLiP2O7,4.8878
mp-754429,CaTm2O4,3.3401
mp-771108,Li3V(FeO2)4,0.6872000000000007
mp-616141,Cs5GeAs3,0.8261999999999996
mp-1056924,Tm,0.0
mp-764378,LiCo3Sb(PO4)6,0.0
mp-777720,Li2VO2F,1.4806999999999997
mp-4445,Hg3AsO4,0.4925
mp-764183,Li5MnCr3O8,2.2576
mp-1013543,Ca3AsN,0.0
mp-961651,ZrFeSe,0.16250000000000053
mp-12533,La2Hf2O7,4.232799999999999
mp-1096052,LiAl2Ru,0.02629999999999999
mp-1014261,IrO2,0.0
mp-608468,ZnS,1.9806
mp-647265,V2Bi7O15,1.2473999999999998
mp-28233,MnCl2,1.7853
mp-28467,Cs2Cu5Se4,0.0
mp-24297,SrP2(HO)4,5.4304000000000014
mp-763300,LiFeO2,1.6202000000000003
mvc-15041,Ca(NiO2)2,0.3921000000000001
mvc-13729,BiN,0.8056999999999999
mp-972326,TcPt3,0.0
mp-1690,TaS2,0.0
mp-767668,Li9Fe5(SiO8)2,1.6460999999999997
mp-1079046,BC7,0.0
mp-757798,Bi12PO20,0.0
mp-769846,Na2Mn(SO4)2,4.376
mp-703352,UP2H6O7,2.5385
mp-771675,Li2MnVO4,0.4795000000000002
mp-15558,Li3GaF6,6.3643
mp-18764,Ba2SrWO6,3.2478
mp-755057,Rb2PrO3,0.0
mp-865185,Mg(BeAs)2,0.4079999999999995
mp-672259,AlFe2Mo,0.0
mp-634,HgS,1.7068
mp-621624,Tl7Sb2,0.0
mvc-1090,BaCa(WO2)4,0.0
mp-29741,Tl2(CdSb)3,0.04240000000000066
mp-30054,CS2N,2.982
mp-28792,P4N3Cl11,2.6339
mp-20923,EuSbPt,0.032999999999999474
mp-1094475,MgZn,0.0
mp-567874,Pr(AlBr4)3,3.3654
mp-1098971,HfMg30NiO32,0.0
mp-3980,LiSbF6,4.933400000000002
mp-755044,CaTb2O4,4.032
mp-765076,LiMnOF2,1.2316
mp-1031453,KNaMg6O7,0.0
mp-554038,CaTa2O6,2.4404
mp-33029,Nd2O3,0.9034
mp-557602,KBa4Au(CO)4,2.6467
mp-1013533,Ba3PN,0.0
mp-570491,TaNi3,0.0
mvc-939,BaMg(MoO2)4,0.0
mp-979355,Sm3Dy,0.0
mp-505305,La3MoO7,1.5694999999999997
mp-806,PuO,0.0
mp-1025344,V(CrTe2)2,0.0
mp-721059,H8AuC2S2N4ClO4,3.3284
mp-865758,YbGeO3,1.0216000000000005
mp-5615,CaAgAs,0.01959999999999961
mp-779222,Li3Co2(SiO4)2,0.14669999999999986
mp-558748,Sc2O3,3.4806
mp-1093606,ScCu2Hg,0.18150000000000024
mvc-9145,CaTiV(PO4)3,1.3963
mp-641917,ZnSiO3,3.3368
mp-775354,Li5NiO4,1.6658
mp-27863,AlClO,5.5876
mp-632229,HBr,4.681
mp-614369,La3BWO9,3.7853
mp-642890,LaSe,0.0
mp-1094858,MgGa,0.0
mp-22622,YbCoB4,0.0
mvc-14250,Al5(FeO4)3,1.5019999999999998
mp-36538,La2PbS4,2.1549
mp-972351,Tl,0.0
mp-29070,La5C2Br9,1.7523999999999995
mp-634446,CsAl(H2N)4,2.9105
mp-683907,Yb2Te4O11,0.0
mp-763138,Co3OF5,0.7751999999999999
mp-4324,Tm2CdS4,1.1768
mp-679975,KGaO2,2.8487
mp-23688,RbH3(CO2)2,4.8136
mp-755007,CeOF,0.0
mp-1018155,MnSn,0.0
mp-777084,LiV2OF5,1.5573
mp-765444,LiSi2NiO6,1.2855
mp-1074388,Mg4Si3,0.0
mp-769506,Na2FePCO7,2.3895
mp-762646,LiFeSiO4,2.1636
mp-760957,NaCuP2O7,0.5751000000000001
mp-850950,LiMn3(BO3)3,0.15680000000000005
mp-30627,DyZn5,0.0
mp-559463,RbMgAs(H6O5)2,4.2177
mp-1359,NbIr,0.0
mp-690523,Mn2NiO4,0.0
mp-531201,Ho2CdSe4,0.7393000000000001
mp-1025262,Sm2Fe2Si2C,0.0
mp-9084,CsGdS2,1.7428
mp-30307,DyBiRh,0.0
mp-571412,RbNa5(WN3)2,1.8418
mp-778868,Fe10O11F9,0.0
mp-865217,YbThRh2,0.0
mp-626879,V3(HO4)2,0.6535000000000001
mp-763970,V4O7F5,1.5531
mp-863761,K2BaCdSb2,0.1504000000000003
mp-765047,Li(CoO2)4,0.0
mp-505603,Pb5SO8,2.4636000000000005
mvc-15702,Zn(SnN)2,0.0
mp-861145,Sm27Y5O48,3.773000000000001
mp-783919,Li4MnFe3(PO4)4,4.1864
mp-570175,Ce5Si3,0.0
mp-29955,Hg3(SeI)2,1.4222
mp-1096030,MnZn2Co,0.0
mp-755404,Gd3SbO7,2.4773
mp-6908,YMgZn,0.0
mp-2361,Hf5Al3,0.0
mp-9723,Sr4Li(BN2)3,2.0686
mp-19144,Rb2W2O7,2.423
mp-761349,CdCoO3,0.0
mp-532105,SiO2,5.558
mp-1073688,MgSi,0.0
mvc-5957,TiZn2WO6,1.4272999999999998
mp-621440,Rb2NaNiF6,0.0
mp-1028117,RbMg14Mn,0.0
mp-649186,Os10C23S2O23,1.0178
mp-862662,LaMgZn2,0.0
mp-1100151,Mg6BSb,0.0
mp-510719,SrGaH4,0.0
mvc-14413,TeO3,0.4183
mp-761128,BaNb5O8,0.0
mp-1093959,In2PdPt,0.10319999999999974
mvc-10442,Zn(CoO2)4,0.0
mp-862796,Pu2S3,0.0
mp-1030398,Te2MoWS2,0.3826000000000001
mp-569313,Mg3Si8Ir3,0.0
mp-569185,K(WCl3)3,0.0
mp-771501,Na2MnBAsO7,0.3288
mp-38407,Li5SiAs3,0.0
mp-866397,Gd4Ni13C4,0.0
mp-10181,LiSiNi2,0.0
mp-755633,K5Se3,0.4279000000000001
mp-561999,CsAlAgF6,0.0
mp-736330,FeGe4H24C8(S5N)2,0.2570999999999999
mp-1096764,Ca3SbP,0.0
mp-2961,MgSiP2,1.372800000000001
mp-1023179,BaCaMg6,0.0
mvc-15365,Zn(WN)2,0.0
mp-11520,YNiSb,0.2962000000000007
mp-1074528,Mg4Si3,0.0
mp-862959,PmRh3,0.0
mp-28294,Sb11F43,3.5093
mp-976920,Ni9S8,0.0
mp-569427,K4Sn(TeSe)2,1.5606
mp-1073929,Mg6Si5,0.0
mp-765993,V2Fe3Sb(PO4)6,0.9787999999999996
mvc-4248,Ca3Ag2(GeO4)3,0.0
mp-1026718,CeMg14Nb,0.0
mp-1094615,MgGa2,0.0
mp-23269,WCl3,0.00780000000000003
mp-25155,CsV3(SeO6)2,2.3071
mp-672258,CsHo2Cu3Se5,1.5657
mp-4500,ZrNbP,0.0
mp-1032862,Mg6MnFeO8,1.1418
mvc-4588,Zn3Cr2(GeO4)3,2.6701000000000006
mp-567750,ScRu2,0.0
mp-1029281,Te3MoWSe,0.3289
mp-770293,Li5Fe2P2(CO7)2,1.3763999999999998
mp-1021211,CeMg6W,0.0
mp-1039182,Mg2Bi,0.1518000000000006
mp-16775,CdCu2,0.0
mp-775458,LiV18O44,0.0
mvc-1081,Ba2YSn3O7,0.0
mp-766954,LiVF5,1.8983
mvc-8436,ZnCuNiP2O9,0.0
mp-769534,Na3Mn2P2(CO7)2,0.0
mvc-7709,Ca2Ti3O8,2.4456999999999995
mp-1064000,Cs3Pt,0.0
mp-1095758,BeAsRu2,0.0
mp-1068256,USi3Ir,0.0
mp-849460,Mn2OF3,0.472
mp-10037,AlCo3C,0.0
mp-752733,TiGa2O5,2.2972
mp-1096064,ZrZnPd2,0.0
mp-568803,Mg(B6C)2,2.1397000000000004
mp-776313,Ti2N2O,1.1019000000000003
mp-690,P4S5,2.4779
mp-694780,LiFe(PO3)4,2.502
mvc-16771,Ca(CrS2)2,0.3849999999999998
mp-13150,BN,4.3877
mp-643756,EuMgH4,0.17059999999999986
mp-706525,NaAl3P2(HO3)4,5.4975000000000005
mvc-8378,CaCr2O5,0.4354
mp-680202,Ag2SnO3,0.0
mp-864906,MgSnIr2,0.0
mp-567822,Sr3In11,0.0
mp-1093796,SrCaPb2,0.1253000000000002
mp-4160,Tl3PSe4,1.4779
mp-722342,NaCa2B9(H2O5)4,5.1407
mp-22305,NaCu3(RuO3)4,0.0
mp-1093979,Zr2CuRu,0.11039999999999983
mp-1080367,CeSe2,0.9777
mp-1027992,Mg14FeBi,0.0
mp-1028229,Mg14AlC,0.0
mp-775172,Li5Sc2Fe3(SiO3)10,2.7961000000000005
mp-1820,YbS,2.4432
mp-765135,WOF4,4.4088
mp-1072598,ErCdNi4,0.0
mvc-3257,MgFePO5,1.9023
mp-28537,As2PbO4,2.8420999999999994
mp-1073003,Mg2Si3,0.0
mp-652626,K4Mn3F12,0.8518
mp-560786,Nd10S19,0.5009000000000006
mp-13520,Na2ZnGe,0.0
mp-853212,Li4Mn3Cu3(WO8)2,0.0
mp-757142,LiNb(PO3)4,0.9699
mp-1019561,Ca2GeO4,3.555
mp-4521,Tb(CuGe)2,0.0
mp-15442,SmSi3Pt5,0.0
mp-13464,Ca(FeSb3)4,0.005999999999999339
mp-9847,YbP5,0.0
mp-30622,Dy5Ru2,0.0
mvc-10567,Ba2Ca3Ti4Tl2O12,0.0
mp-557072,Ba3TiNb4O15,2.4151
mp-542209,Ba2CoSi2O7,2.9347
mp-756490,Li6MnS4,1.8486
mp-17734,SrHo2CuO5,0.0
mp-555606,Na10Be4Si4O17,3.9403
mp-769514,Li9Mn12Cu3O32,0.0
mp-25179,Na2W2O7,2.4571
mp-865014,Mg2Cu,0.0
mp-19643,Rb2CrO4,3.1347
mp-27250,CsTcO4,3.4144
mp-704981,Mn5Ge2,0.0
mp-8124,YbCuSi,0.0
mp-995224,CO2,5.2707
mp-754046,PrTlO3,0.0
mp-763836,Li3MnP2HO8,4.417
mp-608103,Na3VF6,2.5107000000000004
mp-721686,SnH4(ClO)2,3.8242
mp-762678,LiFeSiO4,2.6843
mp-644118,H5N2Cl,0.0
mp-4658,La(BO2)3,4.542
mp-567484,PtCl2,1.1359
mp-1001916,HfN,0.0
mp-1099902,La7SmMnFe7O20,0.8737000000000004
mp-556676,Na3Al2(AsO4)3,3.258
mp-4960,Li(PrGe3)2,0.0
mp-760490,Mg7Cu2O9,0.0
mp-10422,NaAuC2,0.0
mp-24199,LiHF2,8.0448
mp-764155,Mn6OF11,0.4441000000000001
mp-4487,Er(MnGe)2,0.0
mp-542488,MgCo,0.0
mp-38511,Ag2S,0.121
mp-622170,V(SeO3)2,1.9892
mp-862372,Sc2RuRh,0.0
mp-556567,BaH16C4S4(NO5)2,5.4192
mp-22968,NaClO4,5.4553
mp-541753,Cs2WBr6,0.8105
mp-23870,NaH,3.7666
mp-17953,MgNb2O6,3.4962
mp-754459,BCl(OF2)2,1.7619999999999998
mp-765687,VOF,1.2552
mp-565967,KFePO4,3.3087
mp-774383,V4(OF3)3,1.472
mp-697677,CeMg2H7,0.0
mp-24560,LiB2H3O5,4.8897
mp-1094769,Y3Mg,0.0
mp-849086,CuS2,0.0
mp-772586,Li2Cr2O7,2.4504
mp-510328,NaCu5C6,1.7390999999999996
mp-850244,Li5Mn6(BO3)6,0.11109999999999998
mp-761719,LiCoPO4,2.8051
mp-772898,AlGaO3,3.2132
mp-22253,Zn(InS2)2,0.11450000000000048
mp-1387,AlV3,0.0
mp-762783,LiMn5P3O13,2.0967
mp-774099,V2Ni(PO4)3,0.0
mp-571181,RbAuN12,1.4603
mp-694936,Na6TiMn(SiO3)6,2.8038
mp-762911,FeOF,0.7532999999999999
mp-20130,Pu3Al,0.011400000000000077
mp-10409,Ba4Nd2Cd3Se10,1.7244999999999997
mp-17065,Ho2SiO5,4.7086
mp-776283,Li4NbCo3O8,1.4030000000000002
mvc-6928,Ca(FeO2)2,1.7351
mp-756272,LaDyO3,4.3626
mvc-14986,CaNiWO6,1.242
mp-554863,KNb5O13,2.3545000000000003
mvc-1349,BaAlCr4O7,0.0
mp-1025508,ErGa2Ni,0.0
mp-6233,NaSr3RuO6,0.6425000000000001
mp-557722,LaSO,1.5305
mp-755061,SrCaI4,3.7126
mp-38102,Na3CeF7,2.6973000000000003
mp-29524,K3BiO3,2.9552
mp-863678,KZn4(SbO4)3,2.1239000000000003
mp-16507,LuAl,0.0
mp-744397,Co2H21S3(NO2)6,0.5585
mp-27947,Sn(SbTe2)2,0.25900000000000034
mp-1001614,LuCoC2,0.0
mp-1094526,Y2Mg,0.0
mvc-9993,MgCr2O4,1.0611000000000002
mp-978094,NdHo3,0.0
mp-755084,Na6MgO4,1.9734
mp-1079562,UFeSe3,0.0
mp-1037799,Mg30TiFeO32,0.19640000000000046
mp-561134,Sn2SbS2I3,0.6246999999999998
mp-504361,Li6Cr3P8O29,0.064
mp-617840,Ba3Ce2C5O15F2,0.0
mp-510422,SiNi2P,0.0
mp-1031901,CaMg6CrO8,0.0
mp-3205,CaCO3,4.2614
mp-777477,LiFeF4,3.1167
mp-1031915,YMg6CdO8,0.0
mp-1074011,Mg6Si5,0.0
mp-735715,YbV4O8,0.8961000000000001
mp-1070625,SO4,0.0
mp-1096694,Sr2TlHg,0.0
mp-559356,Tl3AsS3,1.565
mp-1079433,BaMg4Si3,0.0
mp-770098,Ga2NiO4,0.0
mp-997106,AgRhO2,0.4969000000000001
mp-755980,SrCaI4,3.8183
mp-1034041,KLiMg14O15,1.1967
mvc-12238,CaV4O8,0.6888000000000001
mp-17105,Hf9V4S,0.0
mvc-12657,MgFeO2,1.4854000000000005
mp-1027112,MoW3(SeS)4,0.6724000000000001
mp-35787,Ca(DyS2)2,2.3444000000000003
mp-30663,Ga3Pt5,0.0
mp-17220,Rb3TaS4,2.8458
mp-556339,Hg3AsO4,1.7517
mp-30096,Be2Te7Cl6,1.2797
mp-566831,Bi2Te2WO10,2.9479
mp-693612,NaCa3SmP3O12F,5.2867
mp-767724,Li5Fe3(BO3)4,1.148
mp-763685,Li9(FeO4)2,0.0
mp-863758,K2SrCdSb2,0.3167999999999997
mp-850247,Na2CoO3,0.0
mp-763359,LiCr2CoO6,0.4902000000000002
mp-568801,Pr3CuSiSe7,1.3983999999999996
mp-541093,Nb2Hg3S(O2F5)2,2.3509
mp-1056994,YC,0.0
mp-1094006,Zn(GaS2)2,0.0
mp-24674,Be3P2(H2O5)2,5.8481
mp-1099885,La3SmV2Cr2O10,0.3219000000000003
mp-625751,MoH4O5,2.2858
mp-18831,Y2Mn2O7,1.0034999999999998
mp-770651,Li10Fe9CoO20,0.22940000000000005
mp-1094546,Mg2Sb,0.0
mp-650524,Sb3S2XeN(O2F9)2,1.6944
mp-30942,Ba6Mg11F34,6.5471
mp-1028228,Mg14FeB,0.0
mp-23299,RbCl,4.7794
mp-975521,NdMgO3,0.0
mp-763412,Li4Co13O28,0.4614
mp-1019548,BaGe(S2O7)3,3.945
mp-556450,PrB2ClO4,5.0695
mp-29809,Ca2GeN2,0.3825999999999996
mp-614455,GdCu,0.0
mp-1065811,SnO,0.0
mp-1095255,Ba3ThSe7,0.9539
mp-776282,V3Zn2O8,1.5222000000000002
mp-20379,DyTh,0.0
mp-1042,HfSi,0.0
mp-612701,MnAs,0.0
mp-561380,Ag2Te4O11,1.1402
mp-1096224,LaYPb2,0.0
mp-38017,Na2PtO3,0.5358
mp-766995,LiLa3Ti2O9,2.6852
mp-1073903,Mg6Si5,0.0
mp-640383,Ho5NiSb2,0.0
mp-9905,Ba2Si,0.000500000000000167
mp-867926,LiInPd2,0.0
mp-771341,Li3BePCO7,5.3538000000000014
mp-767080,LiMn2(PO4)2,0.0
mp-973818,LiHoO3,0.0
mp-1080089,TaFeB,0.0
mp-35986,Ba4Nd3F17,6.347799999999999
mp-1080756,ErAu3,0.0
mp-684694,Yb2Se3,0.7920999999999996
mp-763147,Li2MnF6,2.7275
mp-1068398,Eu(GeAu)2,0.0
mp-773272,AlCoO3,0.8609
mp-669435,KLaCO4,0.0
mp-569792,CuBi,0.0
mp-1097668,LiAg2Sb,0.3138000000000001
mp-1170,SnS2,1.5585999999999998
mp-1021376,CsKMg6,0.0
mp-769785,ScVO3,1.5053
mp-862546,Sc2AlRu,0.0
mp-567999,Np(CrGe)2,0.0
mp-723082,Na5Te2H36AuO28,2.4632
mp-12264,LiYbF4,0.0
mp-1080294,CeSe2,0.6978
mp-1036133,NaMg14MnO16,0.9385000000000004
mp-559400,BeF2,8.085
mp-763615,LiFe2C2O7,2.3088
mp-16314,TmSbPt,0.3690000000000007
mp-9006,Ho2CF2,1.1355000000000004
mp-767741,Li4Mn2Ni3Sb3O16,0.0
mp-31090,Er2Pd2Pb,0.0
mp-2461,CaGa4,0.0
mp-7877,Sr(CuSi)2,0.0
mp-12889,ZrU3Sb5,0.0
mp-756751,Tm2Nb2O7,0.0
mp-2133,ZnO,0.7303
mvc-5533,ZnBiAsO5,1.9212
mp-23231,AgBr,0.7306000000000001
mp-1094110,Ni5Cl6,0.0
mp-777192,Fe2O3,0.9422
mp-580744,Hf6Si7Ni16,0.0
mp-850877,Mn8O13F3,0.0
mvc-3143,Ba2Tl2Ni3O10,0.0
mp-625661,H9BrO4,4.3502
mp-1098862,Mg30ZnFeO32,3.091
mp-4734,NaPO3,4.971
mp-977049,Hf4Co4Ge7,0.0
mp-1062378,Ho,0.0
mp-758320,Li2CuF4,0.857
mp-1097444,TiCdRh2,0.2907000000000002
mp-707440,Sr2Mg3H10,2.8642000000000003
mp-2613,LaCu5,0.0
mp-9909,Ba5Sb3,0.0
mp-1038567,Mg30CrCO32,0.4254999999999996
mp-864844,Zn2RhAu,0.0
mp-295,HoAs,0.0
mp-1094476,MgZn3,0.0
mp-1032772,YMg6VO8,0.0
mp-675328,Ce4GeS3,0.0
mp-758797,LiCu(PO3)3,0.17389999999999994
mp-780323,V3OF11,2.1964
mp-764765,Li4Nb3Ni3(SbO8)2,0.0
mp-697558,SbH12C2N6F5,4.9460000000000015
mp-1027859,BaMg14Fe,0.0
mp-763232,Cr4OF11,0.9226
mp-975411,RbBr3,0.0
mp-561706,Na2CoGeO4,1.537
mvc-3341,MgVSF5,0.29479999999999995
mp-850866,CeHfO4,1.6021999999999998
mp-33112,Sc2H5,0.0
mp-568662,BaCl2,5.4309
mvc-12231,MgV4O8,0.6118999999999999
mp-1026690,Mg14SnB,0.0
mp-1068462,LaS,0.6301000000000001
mvc-13155,Mn3AlF15,0.20899999999999969
mp-542079,K3La(PSe4)2,1.4575
mp-982510,P3Au,0.0
mp-867898,DyAgHg2,0.0
mp-559382,CoO2,0.0
mp-1704,Tb2Tl,0.0
mvc-16049,CaV4O10,0.9802
mvc-10966,FeO2,0.0
mp-5501,Tl(CoS)2,0.0
mp-762633,LiMn2NiO6,0.7591999999999999
mp-31354,Pr3OsO7,0.2661000000000002
mp-565957,Y3Fe5O12,0.0
mp-8450,Rb2Li2GeO4,3.3651
mp-764959,VF5,2.8066000000000004
mp-560040,Ca2Nb2O7,2.9996
mp-504617,Ti3Co5B2,0.0
mp-505393,Li(Mo4O5)2,0.08079999999999997
mp-776259,Hf2N2O,2.0534
mp-867368,Eu3Sn,0.0
mp-30002,Sc(IO3)3,3.8523
mp-781495,Na2Co2O3,1.1591
mp-686701,Nd3O2F5,3.9479
mp-768084,Li8V11O22,0.8115000000000001
mp-767694,Li12MnFe3P4(CO7)4,3.64
mp-36240,LiMn8O16,0.009599999999999831
mvc-2678,Ba2Mg2Ti3Tl2O10,0.0
mp-1077808,VFeSb,0.0
mp-619092,K2Fe2As2O9,1.8765
mp-32456,Li3V(PO4)2,2.0937
mp-1075203,Mg3Si4,0.0
mp-764548,Li5Fe8(BO3)8,1.3468999999999998
mp-765862,Li8Ni(O2F)2,3.1612
mp-11028,K3Hg11,0.0
mp-757722,BaZnGeO4,2.8891
mp-20467,PuB4,0.0
mp-673817,Rb3P11,0.0
mp-773292,Li3Mn(FeO3)2,0.6681999999999997
mp-1098940,Mg30NiCO32,3.1796
mp-27064,LiCuPO4,0.0
mp-580439,UFe5Si3,0.0
mp-754399,Na4CuO3,0.3162999999999998
mp-1014995,CrN2,0.0
mp-675120,Cu2SiTe3,0.1598999999999995
mp-677703,Nd4Si4N7ClO3,3.168
mp-25649,NaIn(WO4)2,3.4845
mp-1016429,CsMg6W,0.0
mp-1078725,Ba2UZnO6,1.7578000000000005
mp-558134,TlF,3.0101000000000004
mp-758329,YbCO3,4.6960000000000015
mp-559602,AgSb(S8F3)2,2.7422
mp-775605,Li2Ni2SnO6,0.6304000000000003
mp-976802,KF2,1.3494000000000002
mp-685249,K2OsO5,1.3774
mp-862368,Sc2NiPt,0.0
mp-21137,Ca2PbO4,1.4819999999999998
mp-1079471,TmZnPd,0.0
mp-1096802,Ag2GeSe3,0.06340000000000012
mp-33239,Pu2S3,0.002600000000001046
mp-1034094,RbMg14GaO16,0.5449000000000002
mp-13467,Ce(GePd)2,0.0
mp-652229,Co4Ge(CO)13,1.958
mp-776365,Li9Mn21O40,0.0
mp-1079127,Ti2H3,0.0
mp-1026661,NaMg14Mo,0.0
mp-566244,Zr(MoO4)2,2.9382
mp-937035,Ce(GeRh)2,0.0
mp-1034733,CeHfMg14O16,0.0
mp-1027408,Te6Mo3WS2,0.06469999999999976
mp-1038594,Mg30NbCrO32,0.6156000000000006
mp-5546,Cu8GeS6,0.5983
mp-567387,Ce(TiAl10)2,0.0
mvc-10378,CaMn2O4,0.2441
mp-28323,Pd2Cl2O,0.6905999999999999
mp-32813,Ti9O10,0.0
mp-767009,Li4Mn2OF7,0.4249000000000001
mp-1099312,KMg6W,0.0
mp-1093992,ZrN,0.0
mp-1078639,DyMgPd,0.0
mvc-14218,CaWF5,3.4857
mp-1096674,Li2CaMg,0.6461000000000001
mp-652274,Ge2RuC4(Cl3O2)2,3.3452
mp-556777,Li2CO3,3.7449
mp-23141,Sr5P3BrO12,4.9315
mp-1038023,RbMg30MnO32,1.9638
mp-752549,LiAgF2,1.7748
mp-28099,SBr,2.2294
mp-1018648,AuN2,0.0
mp-753353,Sr4LiCu(CO5)2,1.0264000000000002
mp-867800,AcSe3,0.0
mp-3999,Y(SiPt)2,0.0
mp-1094998,CaMg,0.0
mp-1023509,Mg15Si,0.0
mp-864628,Pm2SnPd,0.0
mp-763450,Li3V3(PO4)4,1.8507
mp-775572,Na3Li5Mn5O9,0.16880000000000006
mp-4284,Ho2CdSe4,0.6088
mp-621994,NdOsO4,0.0
mp-583762,Na3W3Cl13,0.9179999999999999
mp-19039,CdMoO4,2.4682
mp-1034907,NaCeMg14O16,0.0
mp-9619,Th(FeP3)4,0.5338000000000012
mp-19276,BaMoO4,4.0822
mp-776018,SrTiO3,1.7362000000000002
mp-1095811,LiY2Ga,0.4416000000000002
mp-1079118,Ir(Br3O)2,0.0
mp-1093974,CrTcGe2,0.0
mp-990542,PuSb,0.0
mp-540236,MoPO5,1.3930999999999998
mp-28474,S7(N3O4)2,2.0213
mp-771260,Y2Hf2O7,4.130199999999999
mp-1678,PuRh3,0.003600000000000492
mp-766057,V4OF11,1.5669
mp-978856,SrH3,0.0
mp-685446,BaNb8O14,0.30489999999999995
mp-762943,Fe35SiO48,1.3936000000000002
mp-554249,Bi6Cl3O7F,2.994
mp-1098853,Mg30CrCuO32,0.6623999999999999
mp-559755,Sm2(SeO3)3,3.9039
mp-779147,Ho2P4O13,5.4866
mp-977362,ZnGaRh2,0.0
mp-30203,Sc6AgTe2,0.0
mp-547237,Co(PO3)2,2.9753000000000007
mp-770078,LiMnPCO7,0.9307
mp-861552,Li3Mn(PO4)2,1.1943
mp-1078904,Sb2Te3,0.0
mp-1037669,CsYMg30O32,2.1694000000000004
mp-862657,LiCuPd2,0.0
mp-849686,V3(O2F)2,0.8214000000000001
mp-644504,NdMg2Ag,0.0
mp-24147,AcH2,0.0
mp-759720,LiCuO2,0.4525000000000001
mp-767539,Li6SbS2,1.0837000000000003
mvc-732,AlSn(WO4)2,0.16970000000000066
mp-2681,Ho5Sb3,0.0
mp-6968,Cs2KCuF6,0.8474999999999999
mp-650817,K(MoO2)4,0.7791999999999994
mp-567681,CsPbBr3,2.8808
mp-1069,HfSi2,0.0
mp-758599,Sr5(ReO3)12,0.0
mp-6492,Ba2YSbO6,3.5377
mp-1016900,CaOsO3,0.0
mp-680578,Sm4Si3Pd4,0.0
mp-11546,TiPd,0.0
mp-531272,GaAsO4,1.0653
mp-766116,VF3,1.7384000000000002
mp-770140,Li4Fe5Sb3O16,0.9514000000000004
mp-768284,Li3Sn(BO2)5,3.761
mp-2460,Er2O3,4.1066
mp-989524,LaWN3,1.2220000000000004
mp-778348,Ta2CrNO5,1.4420000000000002
mp-1078919,CsV2O5,0.2
mp-10627,SrS,1.7902999999999998
mp-867998,In15SnO24,0.0
mp-1028323,KMg14V,0.0
mp-1026732,CeMg14Sb,0.0
mp-25794,V2CdP2O9,1.7894
mp-29549,Si(PH2)4,3.929
mp-979435,YMg2Sc,0.0
mp-744184,TbFeGe2O7,2.592
mp-999293,PdN,0.0
mp-4552,ErInCu2,0.0
mp-1020108,LiCaMgSiN3,2.8374
mp-1508,LaS2,0.6312999999999995
mp-675266,Ca3(HO3)2,2.9049
mp-685555,HgAsS2,0.9166999999999998
mp-1095346,EuCdPt,0.0
mp-643013,ZrP2(HO3)2,4.1284
mp-8429,K4IrO4,0.4379
mp-743820,Cu3Mo2(HO5)2,0.20200000000000007
mp-556153,Sr2P2O7,5.1125
mp-691129,V5N4O,0.0
mp-6745,LiGa(SiO3)2,4.2722
mp-864932,Mg2AgPt,0.0
mp-912227,CeGa2,0.0
mp-25729,H8W3Se(NO6)2,3.1063
mp-571150,Cs2Zr7CI18,0.11840000000000027
mp-639496,EuIn2Au,0.0
mp-677725,SrLa11Mg3Ga9O34,1.489
mp-557104,LiAlB2O5,5.4116
mp-1095403,BaTbCuTe3,0.6114999999999995
mp-709432,NaH3C4S4(OF)12,6.2957
mp-554819,MgP4(Cl5O3)2,3.5985
mp-1096394,LiMgPt2,0.006800000000000139
mp-646926,GdRu2,0.0
mp-636619,Gd2MnGa6,0.0