mpid,formula,gap pbe
mp-582968,Bi6Cl7,1.6159999999999997
mvc-16384,CaCu3(GeO3)4,0.7027999999999999
mp-557910,Cd2PO4F,2.3693
mp-2969,CsSbSe2,1.1348
mp-1016120,KMnO2,1.7737999999999998
mp-909046,MnTe,0.0
mvc-9751,Mg(AgO2)2,0.0
mp-763244,ZnFeH4O2F5,2.9358
mp-31364,Ce(Al5Ru)2,0.0
mp-13001,Ba2HoTaO6,3.3782
mp-696020,CaRe2H6C(NO5)2,3.3871
mp-25600,NiH2SeO5,3.0548
mp-561191,BaFeF5,3.7032
mvc-2991,Ba2AlTlW2O7,0.0
mp-561589,Sr2Fe2O5,0.7521
mp-780176,Fe5O3F7,1.2638
mp-1034615,Mg14SiCO16,0.2016
mp-530262,Li15Cr2N9,1.3186
mp-505278,Zr9(NiP2)2,0.049000000000000384
mp-2250,ZrNi2,0.0
mp-29201,TbCd2F8,0.0
mp-763752,Li3Mn2(NiO4)2,0.0
mp-21312,Ca(Ni2B)6,0.02340000000000053
mp-867320,Ho2ZnRu,0.0
mp-565580,Li2Mn2NiO6,1.4988
mp-556767,ClF3,2.5828
mp-566658,LiV(GeO3)2,2.0332000000000003
mp-17964,Na2Ge2Se5,1.4023
mp-779369,Fe5(OF4)2,0.1221000000000001
mp-1039434,Mg5Cd,0.0
mp-8278,Ba(MgP)2,1.1366
mp-13202,YCuSn,0.0
mp-6706,TiTlPO5,2.6472999999999995
mp-780327,LiMn3(BO3)3,0.025600000000000067
mp-1094209,Mg2Sn,0.0
mp-680760,In4Br7,2.2917
mp-707703,Th8Al4H11,0.0
mp-765649,Li11Ti12(NiO8)4,0.17010000000000058
mp-7390,SrGe2,0.0
mp-1080664,CrB,0.0
mp-1014138,ZrB,0.0
mp-1028250,SrMg14Al,0.0
mp-772568,Li2Cr4O13,1.5112
mp-707571,Na3SiH11O9,4.1942
mp-12716,LiTlPd2,0.0
mp-868342,Li4Co5O12,0.01870000000000016
mp-1030951,KMg6SbO8,0.0
mp-31970,LiMnPO4,3.6669
mp-777026,FePO4,1.8779
mp-568366,Tb4CdRh,0.0
mp-505164,NbTe4Ir,0.0
mp-504772,Y3(SiRh)2,0.0
mp-35746,Sr(YS2)2,2.1883
mp-1079946,Co3W,0.0
mp-863006,CsB2H5O6,5.0467
mp-1095888,TlHgPb2,0.0
mp-626241,Sr(H8O5)2,3.4424
mp-1093767,Sc2TlMo,0.0
mp-754526,TmBrO,4.427
mp-25906,Bi(PO3)4,0.0
mp-531975,Zr3(Bi5Br9)2,0.0
mp-17688,CsGaTe2,1.503
mp-998973,TiFeCoSb,0.0
mp-1099085,CaCeMg14,0.0
mp-1006246,CeSm3,0.0
mp-867114,TaBeRu2,0.0
mp-581716,Sr(InAu)3,0.0
mp-556762,BS2N2OF7,4.937
mp-621592,YPbAu,0.0
mvc-4936,Mg3Si4(NiO7)2,0.8382999999999998
mp-20396,RbCa2Nb3O10,1.4813999999999998
mp-14796,KPt2Se3,0.9728
mp-623089,CaCdPb,0.0
mp-1095886,Hf2NiRh,0.0
mp-1007768,ZnHCO4,0.0005999999999999339
mp-24267,ZnP4H16(NO8)2,4.9641
mvc-16565,Ca3La5Mn7NiO24,0.0
mp-1093748,Rb2AuI,3.1851000000000003
mp-778419,Na14Cu2O9,0.0
mp-762722,LiCoSiO4,1.4112999999999998
mp-1096702,Ti2VRe,0.0
mp-14563,NaCa3IrO6,0.0
mp-9984,SnS2,1.4855
mp-14017,K3Sb,0.3936000000000001
mp-1021779,Mg6VB,0.0
mp-780880,Rb2CoO3,0.4884
mp-19846,TlSbSe2,0.0
mp-1062114,SmHg2,0.0
mp-555792,Na(OsO3)2,0.0
mp-2236,UIr,0.0
mp-1028383,Mg14CoBi,0.0
mp-767023,Li2VNiO4,1.6752999999999996
mp-2083,Sn2Ir,0.09180000000000099
mp-771471,Mn3TeO8,0.0
mp-1018709,Hf2GaSb3,0.0
mp-764172,V4(OF3)3,1.3633000000000002
mp-1078964,Mg3Au,0.0
mp-765046,Li4V2OF7,0.9142
mvc-601,YSn(WO4)2,1.9087
mp-768786,BaYI5,2.6641999999999992
mp-29267,Sn5Sb2S9,0.5992999999999995
mp-755634,Y2HgO4,1.2172
mp-778276,Mn3NbNi2(PO4)6,0.0
mp-862700,AlVOs2,0.0
mvc-13940,MgMoF6,2.4387
mp-1080561,CaGa2Ni,0.0
mp-770719,RbLi2Ni2(BO3)3,0.8729
mp-978744,SmBi3,0.0
mp-567201,PrCu6,0.0
mp-1014111,Ni,0.0
mp-1019744,K2Al2Si3O10,4.3747
mvc-1027,CaTiP2O7,0.13999999999999968
mp-1070806,BaTi2Sb2O,0.0
mp-673096,Li3Sn(PO3)6,0.2216
mp-2928,FePSe3,0.2601
mp-1038308,Mg30AlCuO32,1.4857000000000005
mp-649509,Yb2(SeO4)3,0.0
mp-1078397,LaBiS2O,1.2412999999999998
mp-673702,Na2CeO3,1.9759
mp-867267,LiHo2Pt,0.0
mp-1029479,Ca(InN)2,0.14540000000000042
mp-558237,NaZnPO4,3.8292
mp-28268,PtI3,0.34019999999999984
mp-1038988,Ce3Mg,0.013099999999999673
mp-1034517,Mg14NbVO16,0.0
mp-772513,LiCr3O8,1.6692
mp-705452,SrLaTaMnO6,2.6272
mp-1019080,ReN2,0.0
mp-669466,AgNO3,2.0015
mp-31917,Mn3B7IO13,3.813
mp-637,YB4,0.0
mp-558163,Pb(SeO3)2,1.2782999999999998
mp-998748,TlAgCl3,0.0
mp-25113,VInO4,3.0761000000000003
mp-556580,CoCO3,2.3972
mp-19591,Mn4SiO7,0.9181000000000004
mp-1078180,Sr2MgOsO6,0.0
mp-980071,TmLuTl2,0.0
mp-1098661,Mg30MnNiO32,2.854
mp-7979,K2PdF6,2.0399000000000003
mp-779365,V2OF5,1.5278
mp-559469,CaH6C2O7,3.7118
mp-1093651,CuSiIr2,0.0
mp-868755,LiNi(PO3)4,0.0
mp-753544,Li2BiO3,1.266
mp-568740,GdWClO4,2.5147
mp-775993,TiMn2Fe3(PO4)6,0.0
mp-1039447,CaZn,0.0
mp-13675,CdPd3O4,0.0
mp-778752,In2WO6,2.4632000000000005
mp-542180,Th(TeI)2,1.0259
mp-776491,Lu2P4O13,5.4581
mp-1097420,YAlAu2,0.04380000000000006
mp-653560,NaSr2CrF8,4.0386
mp-5221,HfAlCo2,0.02069999999999972
mp-977381,GdMgNi4,0.0
mp-553984,AsP3H18C6(SO)6,3.4175
mp-771844,Mn3VO8,0.5214999999999999
mp-775980,ZrO2,3.576
mp-5369,PrB2Rh3,0.0
mvc-14364,MgSbF5,4.4268
mp-707775,K2B5H5O11,4.8926
mp-1019550,BeGeN2,3.3941
mp-567982,TaSn2,0.0
mp-29977,Rb3BS3,2.5462
mp-971835,Tl3H,0.0
mp-779899,Fe6O7F6,0.0
mp-28769,K(SnSe2)2,1.2314
mp-762839,LiFe4(PO4)3,3.1316
mp-865924,LiZrAu2,0.0
mp-542533,CsNaB4H12O13,4.9524
mp-30974,CsWCl6,0.0010999999999998786
mp-26113,LiTi(PO3)4,0.3046000000000002
mp-1068348,TmAu4,0.0
mp-972472,SnAs3,0.0
mp-400,NdAl2,0.0
mp-758233,Nb9PO25,2.0823
mp-28807,Na7(Cu6S5)2,0.0
mp-652196,Cu2Bi4Pb2S9,0.7154000000000007
mp-767118,Li2Mn2OF6,1.3434
mp-674492,Na2U2O7,1.5831999999999995
mp-23653,Na3MgC2ClO6,4.1751
mp-1040411,CsHfMg30O31,0.0
mp-570121,Ba11(CdSb2)6,0.5093999999999999
mvc-3677,MgFeF4,3.6963
mp-773238,Mn(CoO2)4,0.0
mp-762163,Li3TiMn2O6,0.0
mp-571193,MnP4,0.5601000000000003
mp-144,Ho,0.0
mp-25033,Sr4Mn3(ClO4)2,0.0
mp-972352,YbMg,0.0
mp-38805,Sm5AgSe8,1.4720999999999995
mp-1093739,ZrAgHg2,0.0
mp-1038781,Mg2Bi,0.09299999999999996
mp-1094232,MgSn,0.0
mp-776314,Zr2N2O,1.6107
mp-746774,Mn2CuH12(NO2)4,0.6102
mp-1023267,CaMg6Zn,0.0
mp-17887,SnP2O7,3.3218
mvc-8739,CaMn(Si2O5)2,2.7892
mp-1093860,Li2GaAg,0.6448999999999998
mp-559065,NaI3O8,3.1308
mp-554463,Na3LuSi2O7,3.946600000000001
mp-770311,Li4AlCr3O8,3.2039999999999997
mp-541559,Cs2MnO4,0.6556000000000001
mp-568890,Tl2CdGeTe4,0.35100000000000003
mvc-9889,LaZnCrMoO6,1.4599000000000002
mp-778072,Ba2Y5F19,6.1194
mp-975658,PrHo3,0.0
mp-570568,W2NCl8,0.1574000000000001
mp-627349,Si2H2O3,1.3789000000000002
mp-850989,V2(OF)3,1.7615
mp-1096480,Zr2FeOs,0.2519
mvc-4678,Mg(SbO2)2,1.0955000000000004
mp-565994,WO3,1.2542
mp-672223,Na2Zn2(TeO3)3,2.9687
mp-1009483,NiN,0.0
mp-853214,Li3Mn4(BO3)4,0.0
mp-862366,Sc2TlAg,0.0
mp-541900,AlH15(NF)6,5.5093000000000005
mp-2706,SnF4,3.0953
mp-780681,LiFe3(SiO4)2,0.6305999999999998
mvc-366,Zn(Sn2O3)2,0.04430000000000067
mp-764068,Li3V3P8O29,0.8601000000000001
mp-13534,LaZnNi,0.0
mp-714,SrSn4,0.0
mp-1080195,Mo2N3,0.006699999999999928
mp-761452,Li2Fe(Si2O5)3,0.2641
mp-4078,La2SO6,4.726399999999999
mp-19051,LaCoO3,0.03669999999999973
mp-706688,VH8C10N3Cl4,1.5295999999999998
mp-867022,CaSnS3,1.1208
mp-743783,CoP4(H5O8)2,3.2039
mp-510579,PrNiSnH,0.0
mp-27962,CI4,1.1002999999999998
mp-3682,KCuF3,0.009199999999999986
mp-557830,Na2Bi5AuO11,0.8920000000000003
mp-1021275,LiMg6Cr,0.0
mp-771360,Li6MnSn3(PO4)6,2.5692
mp-18005,NaYTiO4,2.5736
mp-1451,NbNi3,0.01889999999999948
mp-983229,Pm2ZnRh,0.0
mp-21344,CuGeO3,0.009500000000000064
mp-755346,Li5BO4,5.184900000000002
mp-975110,RbMg3,0.0
mp-752669,CeHfO4,1.7975999999999996
mp-543097,MnAsO4,0.07269999999999999
mp-850971,LiMnBO3,2.9262
mp-20145,TiGaCo2,0.004400000000000404
mp-1022985,Mg6MnNi,0.0
mp-972960,La2IrAu,0.0
mvc-309,Sr2TaCu2O7,0.0
mp-755537,Y2HfO5,4.2471
mp-3269,NaTh2F9,6.2727
mp-780411,LaAlO3,4.486599999999998
mp-997095,NiAuO2,0.0
mp-1018353,CeRh,0.0
mp-867869,Sm2AgRu,0.0
mp-762458,Li6Cr3P6WO24,1.5734
mp-504862,Ti4Cd(CuO4)3,0.051600000000000534
mp-1039707,RbHfMg30O31,0.0
mp-12504,CeZnPt,0.003099999999999881
mp-867931,K2U(SO6)2,0.15589999999999993
mp-28267,Na7Al2Sb5,0.29590000000000005
mp-758056,LiTi(PO3)4,0.2504
mp-566641,Sr2FeBrO3,1.346
mp-1077089,CdClO,0.0
mp-780537,Co4TeO8,0.5164
mp-775373,Li4V3P8O29,0.8914000000000001
mp-984356,CsIrO3,0.0
mp-24852,PrCoO3,0.08899999999999952
mp-20137,Dy(GePt)2,0.0
mp-15820,LiHoGe,0.0
mvc-7997,ZnNiAs2O7,2.0657
mvc-8465,ZnCrNiP2O9,0.2302
mp-981808,Sm2As2O5,0.0
mp-8516,CdSO3,3.3333
mp-1098281,CsMg6BO7,1.0671999999999997
mp-1094027,TmTe,0.0
mvc-7287,Ca(SnO2)2,0.9708999999999994
mp-561375,Pr10S19,0.5101000000000004
mp-12895,YbGa4Ni,0.0
mp-33658,Nb2Tl2O7,0.0
mp-3919,KBO2,4.1301000000000005
mp-17137,Ba3ZnRu2O9,0.0
mp-29788,KTb3F12,0.0
mp-1070,CdSe,0.56
mp-771524,Cr5Sb3O16,0.2704
mp-755588,Ho2TeO6,2.5188
mp-556178,BaAl2(GeO4)2,3.936
mp-5767,DyPO4,5.8870000000000005
mp-562074,CsK4TlO4,1.8162
mp-705365,Li2V(PO4)2,1.4738
mvc-7881,MgCu3(SbO3)4,0.0
mp-755065,Ce2Ti2O7,0.0
mp-862832,PaTlO3,2.6419
mp-779359,Fe10O19F,0.0
mp-675230,NaLaS2,2.4308
mp-1075363,Mg5Si6,0.0
mp-4514,NaNbO3,2.8498
mp-22693,Te2W,0.0
mp-4123,ErTlS2,1.4109000000000005
mp-12488,CsErCdTe3,1.8205000000000005
mp-559964,Ti6O11,0.0
mp-557786,CaNb2P2O11,2.4718
mp-22620,CeZnSbO,0.0032000000000005357
mp-1096267,CaPbAu2,0.0
mp-1028206,KMg14Al,0.0
mp-708992,AlH20C2S2NO14,5.3862000000000005
mp-604516,Y2AlNi2,0.0
mp-776452,Ca2Ti6N2O11,1.8035
mp-740717,LiH4SNO4,5.2707
mp-972493,Sm2MgRu,0.0
mp-540818,Tl2Ge2Se5,1.4126
mp-755647,CaPt3O4,0.0
mp-926,PuP,0.0
mvc-9298,CaW3O7,1.0276000000000003
mvc-13145,Zn3Cu2(AsO4)4,0.5052
mp-973232,NdTm3,0.0
mp-1094500,MgZn2,0.0
mp-634430,VO2,1.4852
mp-1036857,HfMg30CoO32,0.006800000000000139
mp-777303,Li3CrO4,0.9148000000000004
mp-5700,Sr2Cu3O5,0.0
mp-1009079,CrTe,0.0
mp-680706,Y13Sn31Pd40,0.0
mp-7444,RbSb,0.5411000000000001
mp-606304,MgH16C4S4N2(O4F3)4,0.4320999999999999
mp-753202,Li5CuF8,0.6895999999999998
mp-1008835,OsC2,0.0
mp-1073733,MgSi,0.0
mp-554636,Gd2B(OF)3,2.7369
mp-975272,Hg,0.04070000000000002
mp-1076802,Sr3Ca5Fe5(CoO8)3,0.0
mp-5684,Ce2CuGe6,0.0
mp-764815,Li3Fe8(BO3)8,1.7432999999999998
mp-776092,Li3V2F9,2.3215000000000003
mp-29909,Ba4I6O,3.9788
mp-6051,K2Hg(CN)4,5.8569999999999975
mp-32066,LiMo2(PO4)3,1.6103
mp-690515,K2CoH2(SeO5)2,1.0581
mp-1097500,LiGaHg2,0.0
mp-8467,YNiGe3,0.0
mp-14437,RbYO2,3.6086
mp-677195,Nd10Si10BrN17O9,2.9445
mp-864955,Mn2CrCo,0.0
mp-625391,NaH3O2,4.3036
mp-559325,Ba7Sc6Al2O19,2.4773
mp-1028094,YMg14Fe,0.0
mp-1040107,NaLiMg30O31,2.5583
mp-11646,Cd(C2N3)2,4.5428
mp-1025491,TbGe3,0.0
mp-6090,Na2Cu(CO3)2,0.653
mvc-7723,CaMn2CoO7,0.26729999999999965
mp-770508,Li4Ti3Mn3(FeO8)2,0.4335
mp-778010,LaTa2NO5,2.0492
mp-1093608,La2GaCu,0.0
mp-782708,V4(OF3)3,1.5231
mp-771494,Na3FeAsCO7,2.5037000000000003
mp-510622,PrFeAsO,0.274
mp-772569,Li2Ni2BiO6,0.0
mvc-14755,YCuF5,0.24360000000000004
mp-780305,Li6Fe5O12,0.139
mvc-10029,ZnSn2P2O9,1.5387999999999995
mp-866605,Ce3SiAgS7,0.0
mp-1099685,BaSr7(FeO3)8,0.0
mvc-2264,ZnP4WO12,0.08329999999999993
mp-1068373,Th(CrSi)2,0.0
mp-556393,RbBe4(BO3)3,5.1692
mp-1098825,Mg30FeCO32,0.0
mp-862845,IrCl2,0.0
mp-776626,LiVF4,2.4317
mvc-8960,CaLa(FeO3)2,0.0
mp-861183,LiNi(PO3)3,4.5459
mp-27337,Xe(OF)2,2.5477
mp-9978,ErSe2,0.0
mp-746324,V2As3H17C4N8O17,2.2969
mp-976139,Li3Mg,0.0
mp-19887,Nb(FeGe)6,0.02629999999999999
mp-766757,Ti2Fe4O9,1.3253000000000004
mvc-11942,CaTi2Fe2(PO4)6,0.0
mp-2850,B2Os,0.0
mp-1037157,Mg30CoSiO32,0.1164000000000005
mp-2341,Li3N,1.218
mp-1094124,LiPH2,0.0
mp-776668,Li8Mn7Fe(PO4)12,0.0
mp-649518,Fe2(TeO3)3,2.1372000000000004
mp-654129,GaAg(PSe3)2,1.4987
mp-996996,CrAuO2,1.1326
mvc-16583,MgCrF4,3.4272
mp-697691,MnP2O7,1.3431
mp-4147,Th(GePd)2,0.0
mp-571095,Na7Ga13,0.0
mp-31356,Sr3MoN4,2.2289
mp-1094350,MgTi,0.0
mp-10910,Al2Ru,0.12930000000000064
mp-583714,Pr5O9,2.8244
mp-722280,LiCuH4Cl3O2,0.3012
mp-865729,CaAg2Sn,0.0
mp-707304,Be4Si2H2O9,5.739199999999999
mvc-12044,Ca3Mn2(GaO5)2,0.13439999999999985
mp-5336,Sn(Mo3S4)2,0.0
mvc-5561,CaCrAsO5,1.2233999999999994
mp-568785,NaAl3NiCl12,1.2562
mp-557543,K3LuSi2O7,3.6083
mp-1020620,Rb5Li6(BO2)11,4.3579
mp-21246,Ba2Pb,0.031400000000000095
mp-866654,Cs2MoSe4,1.3568
mp-1097534,NbTc2Sn,0.25780000000000003
mp-763943,V6O7F5,0.7227000000000001
mp-1078159,Ce2Fe(SeO)2,0.0
mp-690504,Li3V4O8,0.0
mp-600124,MnNiSb,0.0
mp-1022484,Mg6ZrW,0.0
mp-23724,KHCO3,5.0058
mp-1018079,CrGaP2,0.0
mp-13357,Yb2MgSi2,0.0
mp-762299,LiCoCO4,0.8183
mp-541951,Zr3P3Pd4,0.0
mp-680171,KEu2CuS6,0.0
mp-29198,Na5AuSe12,1.0246000000000002
mp-6961,Sr(SbPd)2,0.0
mvc-15980,BiF4,0.9269
mp-1072553,TmCdNi4,0.0
mp-1033614,RbMg6CrO8,0.0
mp-773534,TiFeO4,0.0
mvc-1011,TiP2O7,2.4134
mp-773582,LiTe(H3N)4,1.2815
mp-778881,Li5Mn2(PO4)3,4.0627
mp-771726,MnV4CoO12,2.0634
mp-1079007,Ce3Si2,0.0
mp-972088,Zr3Zn,0.0
mp-1035540,Mg14FeBiO16,0.0
mp-1021488,KMg6Ti,0.0
mp-1030833,Mg6NbSiO8,0.0
mp-554303,La3U(ClO2)3,1.5601000000000005
mp-1079240,LiAl,0.0
mvc-4085,Y2Cu3(SiO4)3,0.059499999999999886
mp-1023248,CeMg6Mn,0.0
mp-16699,Li6Gd(BO3)3,3.1235
mvc-1093,CaWO2,0.0
mp-557441,KAu(IO3)4,2.1081000000000003
mp-5056,Mn2SiS4,0.4374000000000002
mp-1004373,LiMnO2,1.0353
mp-558828,K3Nb3(BO6)2,2.3377000000000003
mp-1086667,ScNiC2,0.0
mvc-4912,TiZn(SiO3)2,0.0
mp-541402,K(Mo2O3)2,0.03880000000000017
mvc-2603,CaV5O7,0.43129999999999935
mp-25517,FeO2,0.07689999999999997
mp-641959,K2V8O21,1.2759
mp-559807,Sb2BrF17,0.14449999999999985
mp-772529,Y2W2O9,3.1880999999999995
mp-684966,Tb8O13,0.0
mp-755420,SrSm2O4,2.8981000000000003
mp-698440,SiBHC3NCl2,0.7866
mp-28140,P2Pb3S8,2.2581
mp-557399,KSnSO4F,3.8906
mp-1076048,Na2V2O5,0.14910000000000026
mp-1097145,MgTiCu2,0.0
mp-780263,Ba2GeO4,4.176399999999999
mp-566373,K3Mo2BrO7,3.0918
mp-646102,Al3Bi5Cl12,1.8216
mp-11581,Tm2NiAs2,0.0
mp-20146,Zr2Ni2Sn,0.0
mp-19918,GdGe,0.009100000000000108
mp-754852,BaSrI4,3.345800000000001
mp-1098843,Mg30TiCuO32,0.5023
mp-568506,Pr2Ni2I,0.0
mp-642662,SrH2Cl2O,4.0372
mp-30826,Pd13Pb9,0.0
mp-21540,Li3TiF6,0.07390000000000008
mp-1068001,GdGe,0.0
mp-777158,LiFe5O3F5,1.6707
mp-720430,CaB3H7O9,5.4108
mp-759667,Li2Sn(BO3)2,3.2075000000000005
mvc-15272,Ca2CoN2,0.0
mp-640447,Ce5NiPb3,0.0
mp-8307,CaNi4B,0.0
mp-636264,La(CuSn)2,0.0
mp-1076450,Sr3Ca5Mn4(FeO5)4,0.0
mp-763659,Li3V2(FeO4)2,0.9148
mp-614122,K2MnF6,3.2401
mp-973684,LuMg3,0.0
mp-23306,CuI,0.0
mp-864782,Ta2MoRu,0.0
mp-4692,Dy(SiNi)2,0.0
mp-735476,MoH2N2Cl5O,1.0095
mp-14892,Rb9Fe2Se7,0.4288000000000001
mp-861251,Li9Mn5(SiO8)2,1.1536000000000004
mp-865306,Tm2CuOs,0.0
mp-763486,Li2Mn3OF6,1.7183
mp-862686,LiAc2Ru,0.0
mp-1095938,BeNbOs2,0.0
mvc-4371,Ca2TaFeO6,1.8862
mvc-10547,Mn3ZnP3O13,0.14610000000000012
mp-756063,RbNbO3,2.8197
mp-1098576,Mg30NbCO32,0.0
mp-972510,SmTmRh2,0.0
mp-767969,SrLi4La15(CoO8)4,0.8319000000000001
mp-683940,Ho(FeSn)6,0.0
mp-1037665,YMg30SiO32,0.3138000000000005
mp-764244,Li9V3P8O29,1.6203
mp-1071627,LaSiNi4,0.0
mp-1098396,LiCeMg30O32,0.0
mp-744002,CoH16C3N8O7,2.9404
mp-1021706,Mg6NiSb,0.0
mp-1031281,KMg6WO8,1.0774999999999997
mp-29771,MgC2,2.562
mp-1036721,Mg30TiSnO32,0.2479999999999993
mp-1028730,Te4MoW3Se4,0.23220000000000066
mp-5901,CeMnSi2,0.0
mp-19570,Li3Fe2(PO4)3,2.4097
mp-1097174,Mn2FeRe,0.0
mp-1099844,Sr2Ca2Co3CuO12,0.0
mp-744084,MnAgH8(OF)4,0.0
mp-5346,Lu(CuSi)2,0.0
mp-8627,SmBO3,5.1718
mp-762376,Ti11Fe17O42,1.3215000000000003
mp-1029773,Ca2TaN3,1.9592000000000005
mp-1013711,Ba3AsP,0.0
mp-1079443,MnTe,0.0
mp-6097,Li3Al(BO3)2,5.0359
mp-773435,Li3Cr(PO4)2,2.0410000000000004
mp-769906,Tm6WO12,3.3848
mp-862760,PrCdAg2,0.0
mvc-15492,Zn2CoSbO6,0.6715
mp-1096915,Cs,0.0
mp-1097093,MnCuRh2,0.02519999999999989
mp-759981,NaCu(PO3)3,0.4566000000000001
mp-22732,Co5Ge7,0.0025000000000003912
mp-20648,V2C,0.0
mp-11639,Rb2GeS3,2.2598
mp-775241,Li2MnCuO4,0.0
mp-769589,LiV3CrO8,1.1787
mp-11833,UCuGe,0.0
mp-972048,Zn6Mo,0.0
mvc-5579,Zn(FeO2)2,1.1384
mp-565739,Nd2NiO4,1.7465000000000002
mp-1059160,BrN,0.0
mp-680553,Sm3Sn13Rh4,0.0
mp-756970,Al2(SeO4)3,3.0578000000000003
mp-10336,BaYCuTe3,0.5362999999999998
mp-1098458,Mg30NbSiO32,0.7779000000000007
mp-2315,NaB15,0.0
mp-686527,K4Mg2H16S4O23,3.6738
mp-1022046,CsMg6V,0.0
mp-1025343,Mn(NCl2)2,0.0
mp-566533,ZnFe2(SeO3)4,2.2666
mp-567504,CrCl3,1.5182
mp-504806,K2Li14Pb3O14,1.9157
mp-705363,LiMnP2O7,1.7018
mp-603640,GaAs,0.0
mp-684785,BaYbAl2Si2N5O2,1.6482
mp-868889,La18Ni12O41,0.2413999999999996
mp-761468,LiFePO4,3.6715
mp-556448,ZnS,2.0192
mp-567555,Pr5C2Cl9,1.6350000000000002
mp-7909,Al2CdTe4,1.6245000000000005
mp-30187,Ga2Te4O11,3.5027000000000004
mp-672176,K3Sc(MoO4)3,3.9186
mp-1099233,Mg6CrBO8,0.0
mp-740740,Na2ZnP(H5O4)3,4.1654
mp-565596,UCoO4,1.4455999999999998
mp-1019573,CaAl2SiO6,4.6134
mp-28246,AgTe3,0.0
mp-1094121,MgAg2,0.0
mp-1095278,BaTbAgTe3,0.8391000000000002
mp-626169,U(HO2)2,1.8923
mvc-4941,ZnW2O5,1.6516
mp-10049,MnAsRu,0.0
mp-1019558,BaSr2Mg(SiO4)2,4.759
mp-18775,Fe3PO7,2.1905
mp-972733,Si3B,0.0
mp-558464,Yb(IO3)3,0.0
mp-975530,RbAl,0.0
mp-19873,DySiRu,0.0
mp-1021869,Mg6CrNi,0.0
mp-770024,Li2Mn3NbO8,0.0
mp-775960,Li4V5Sb3O16,0.7078000000000007
mp-698084,H4NClO4,5.2585
mp-1021414,NaMg6Sn,0.0
mp-570163,Tm4Mn4Sn7,0.0
mp-675563,LaZr9O20,0.0
mp-22231,UTe3,0.0057999999999998044
mp-1100418,ScTlCd,0.0
mp-14395,NaAlAsO4F,3.4604
mp-504985,Ba(GaPt)2,0.0
mp-21478,U(CuP)2,0.0
mp-1014333,C3N,0.0
mp-770042,Li2CrFeO4,2.1398
mp-778415,Li32Mn3Cr13O48,0.9846999999999996
mp-1036582,Mg14AlSnO16,0.0
mp-638141,LiSn5Rh3,0.0
mp-773826,Na8Bi5O14,0.19720000000000004
mp-745016,MnH(CO)4,2.7939999999999996
mp-505274,Na2SO4,5.0264000000000015
mp-625994,H4N2O3,1.4509999999999998
mp-765741,Li4Mn2V3Sb3O16,0.0
mp-763029,FeOF,1.3802
mp-763493,Li2VP3O10,2.2043
mp-778450,LaSmO3,4.243500000000001
mp-770079,Rb5FeO4,1.5655
mp-1095869,ScAg2Hg,0.1408999999999998
mp-862321,LiAsPd2,0.0
mp-541281,BaNdGaO4,3.733
mp-765316,Li3Ni2(CO3)4,0.0
mp-767861,Li2Si2Ni2O7,3.202500000000001
mp-569001,Sr2LiCoN2,0.4715000000000002
mp-4057,CsBF4,7.798399999999999
mp-1029,BaF2,6.5953
mp-1016239,HfMg3,0.0
mp-983556,Er2MgTl,0.0
mp-631515,CaHfZn,0.0
mp-4531,NaNO3,2.9553
mp-1027714,Mo3W(SeS)4,0.6507999999999998
mp-979419,Dy3Y,0.0
mp-19376,TiMnO3,1.9283
mp-769396,Y2Ge2O7,2.9452000000000003
mp-765036,Li2MnOF3,0.5323
mp-8090,Cu2P2O7,0.0
mp-9535,Al6Cd4TeO12,2.5660000000000003
mp-1096667,TaBeOs2,0.0
mp-581330,CsCa2Nb3O10,2.274
mp-3696,UNb3O10,0.017499999999999627
mp-715008,Mn5O8,0.5512999999999999
mp-1080119,K2PtO6,0.03520000000000012
mp-1095185,Y2CrH6,0.4982000000000002
mp-630883,Ni6Mo2P3,0.0
mp-780303,Li4Fe3SbO8,1.2768999999999997
mp-14334,K2RbPdF5,2.2313
mp-634867,TiF3,0.0
mp-1097997,KEu(GeO3)2,0.0
mp-672646,Sm2(InCo3)3,0.0
mp-1033667,RbHfMg6O7,0.0
mp-1078197,H3CBr,4.5392
mp-4682,ZnSeO3,3.4386
mp-28845,OsO3F2,2.3101
mp-754736,BaSr3I8,3.1392
mp-567517,Er5(CoTe)2,0.0
mp-974049,Hf3Pt,0.0
mp-680383,V17Ge31,0.0
mp-569178,HoTlSe2,2.1744000000000003
mp-764006,Li3TiFe3O8,1.8205
mvc-788,W3O8,1.8159
mp-531533,YbZr3F15,0.0
mp-1079173,HoInCo2,0.0
mp-1008813,RbAgO,0.0
mp-31833,Li2Fe3(P2O7)2,4.1181
mp-762998,Li2MnF5,0.8734
mp-861608,PrNiB4,0.0
mp-865200,MnGa2Tc,0.0
mp-574275,Li17Pb4,0.02629999999999999
mp-769497,Li4TiV8O18,0.0
mp-1097181,ZrScZn2,0.0
mp-1093580,Li2YIn,0.04199999999999982
mp-776220,Hf2N2O,2.2156
mp-19182,Ba2CaWO6,3.2692
mp-862655,Ru3W,0.0
mvc-12100,CoP2O7,0.15579999999999994
mp-1024072,Na2Zn3S4,2.7657
mp-769870,Li4Fe3Sb5O16,1.1154000000000002
mvc-4499,Cr2(GeO4)3,0.8313999999999999
mp-777665,Li2FeF4,3.5929
mvc-5981,MgAsWO5,2.0008
mp-1069697,VAu4,0.0
mp-505734,Cs2SiO3,3.4153
mp-1069707,EuSi3Ir,0.0
mvc-11313,Ti4ZnS8,0.0
mp-1079596,Er2NiSn6,0.0
mp-17865,Nb4CrSe8,0.0
mp-527,BaCd,0.0
mp-765180,LiVCr(P2O7)2,1.2349
mp-862996,Pm2CdIn,0.0
mp-555345,CrCuS2,0.0
mp-25760,PrFeGe2O7,2.7694
mp-699552,KMoCl4O,2.8031
mp-28653,NdTa3O9,3.2140000000000004
mp-1095877,TaFe2Ge,0.0
mp-1028911,Te2MoW3(Se2S)2,0.0
mp-1021167,CeMg6Mo,0.0
mp-3585,La(SiIr)2,0.0
mp-559389,SiO2,4.1899
mp-781712,Na2SnO2,2.4072
mp-769869,FeSeO4,1.6350999999999998
mp-571053,Al5Mo,0.0
mp-571288,KTa(AgSe2)2,1.7478
mp-1027463,Te4Mo3W(SeS)2,0.0
mp-542425,MnP4H16(NO8)2,4.2521
mp-1067758,Bi,0.0
mp-743581,VH4NO3,3.2319
mp-971919,ZnSn3,0.0
mp-780510,LiMn3(BO3)3,0.2894999999999999
mp-557747,K2SrP2O7,4.7677
mp-690702,SnPHO4,3.3978
mp-31139,TbNi,0.0
mp-25604,NiPO4,0.0
mp-1091389,EuInPd,0.0
mp-654299,Fe3C9(SO5)2,2.1731
mp-10792,DyBO3,5.0107
mp-28925,Ca4(PPd)5,0.0
mp-31040,NbCl4,1.0765
mvc-9130,BiMoO5,0.0
mp-772084,Li5Cu6(P2O7)4,0.0
mp-763202,Li4CoO4,0.9941
mp-1078877,MgSi(HO2)2,4.7712
mp-18944,Na5Y(WO4)4,4.7451
mp-865005,DyI3,2.1725000000000003
mp-761829,LiCoPO4,2.9874
mp-695403,Ba2La2MgTi3O12,1.9234
mp-867326,Al2RuRh,0.0
mp-22320,GaRu,0.0
mp-28797,YHSe,1.5080999999999998
mvc-6879,ZnCo(SiO3)2,2.9415
mp-31859,Fe3(SiO4)2,1.7470000000000003
mp-778306,Na4Fe2C4SO16,0.4318
mp-773500,LiMnCuO4,0.0
mvc-13999,CrO3,0.0
mp-778719,Mn3OF5,0.3839999999999999
mp-1022082,Mg6VCo,0.0
mp-626074,Al(HO)3,4.614999999999998
mp-556560,MnF3,0.3873
mp-694985,Na2Sc4Zn2(MoO4)9,3.5152