mpid,formula,gap pbe
mp-566589,Ca4Mn3B3CO15,1.4971000000000003
mvc-2237,V(PO3)4,1.2553
mp-27385,KTlCl4,2.3138
mp-1040125,LiMg30BO31,2.3306
mp-1027946,YMg14Sb,0.0
mp-27349,BSF7,4.9968
mp-766986,Li2Mn(CO3)2,3.4214
mp-764735,Li5Mn2Cu5O12,0.0
mp-851034,MnOF,0.2813000000000001
mp-1036503,CsMg14AlO16,0.0
mp-1021505,Ce(P3Os)4,0.2373000000000012
mp-962073,KBaSn,0.0
mp-21552,Na2GaCuF7,0.007399999999999962
mp-32102,LiMo2P2O11,1.0897
mp-762764,Li4Fe3(NiO5)2,0.31010000000000026
mvc-3781,MoF5,1.9257
mp-762486,LiFe(PO3)3,3.6638
mp-16032,Pr2TeO2,1.6555999999999995
mp-1027890,Mo2SeS3,0.5507
mp-775059,Li2Mn2CrO6,0.0
mp-1033792,Mg14CrCO16,0.0
mp-8378,Tl3SbS4,1.5515999999999996
mp-22114,ErSiRh,0.03829999999999957
mp-1037884,Mg30MnCO32,2.0062
mp-18343,BaMgP2O7,5.322800000000001
mp-7542,GeP3,0.0
mp-31076,Tl2TeBr6,2.1666
mp-504329,Fe3(P2O7)2,0.6099000000000001
mvc-15891,MgCoO3,0.0
mp-1025280,Sr2Cu(OF)2,0.0
mp-8323,Dy2S2O,2.1699
mp-28020,AlCuCl4,2.5112000000000005
mp-1084785,KAlO2,2.9327
mp-573080,As3H9RhC3(ClO)3,2.3401
mp-975015,Rb3Ga,0.0
mp-1073777,MgSi,0.0
mp-1019379,AlB3N4,3.5966000000000005
mp-41472,Ca5P3HO13,5.1982
mp-22685,TbInCu2,0.0
mp-779763,Tb2Ti2O7,3.0138
mp-1612,AgO,0.0
mp-763880,Li2VCrP2(HO5)2,1.9209
mp-742801,V2CuH6(NO3)2,0.6950000000000001
mp-637213,La2GeI2,0.4049000000000005
mp-764130,V6O7F5,0.7526000000000002
mp-26794,Li3Cu(PO4)2,0.0
mp-19226,NaFePO4,4.0398
mp-567133,Na2V3O7,2.4932
mp-11462,KHg,0.0
mp-764788,LiMn2OF3,1.8555
mp-11644,Li2Ca,0.0
mp-764469,LiFe2(BO3)2,1.4644
mp-540905,YAlGeO5,3.811
mp-555909,Tb5Se2Cl3O10,3.7345
mp-1072244,EuS,0.0
mp-560409,P3S3N6F5,2.1283000000000003
mp-775631,Li4Fe3Cu3(SnO8)2,0.0
mp-1025438,LuPt,0.0
mp-1093623,LiHg2Pt,0.0
mp-1079764,La(AlPd)2,0.0
mvc-13333,Ca(Fe9O13)2,0.8056999999999999
mp-1094629,MgGa2,0.0
mp-853261,Ni3OF5,0.6954
mp-1025652,Te2MoW2(SeS)2,0.30230000000000024
mp-6065,Sr2GaSbO6,0.7291000000000003
mp-4207,USb2Pd,0.0
mp-669326,CdI2,2.3663000000000003
mp-530564,Sr14MnAs11,0.10969999999999967
mp-779902,Li3V2P4(HO8)2,0.8773999999999997
mp-7618,Cs3YF6,5.3385
mp-980191,BaSrYb2,0.0
mp-778767,Li2FeBPO7,0.2266
mp-1098241,NaMg6Mo,0.0
mp-8399,CsCdF3,3.2880000000000003
mp-505696,Sr2MnCuSO3,0.3816999999999999
mp-1097586,AgSnAu2,0.0
mp-12960,Er5Sb3,0.0
mp-705333,LiMo(PO4)2,2.6869
mp-8667,CeB2C,0.0
mp-1016233,Mg3Al,0.0
mp-1039123,CaZn,0.0
mp-1094142,LiNiO2,0.3820999999999999
mvc-4384,Mg2TaWO6,1.8046999999999995
mp-1025572,WSe2,1.2289
mp-1022965,K3V2(PO4)3,1.7942000000000002
mp-1028111,CaMg14W,0.0
mp-1006887,CdC,0.0
mp-1027311,Te2MoWSeS,0.11509999999999998
mp-1021516,K2Sn,0.0
mp-649933,BaCeC2O6F,0.3249
mp-975616,LaEuZn2,0.0
mvc-4265,Mg3Ge3(BiO6)2,2.6657
mvc-8914,LaMgVFeO6,1.4981999999999998
mp-770131,LiFePCO7,0.00269999999999998
mp-680472,NaMo6Br13,1.9979
mp-1076000,LaAgO3,0.0
mp-698711,Sr9NdFe5(MoO6)5,0.8835000000000006
mp-569126,AgBi(PSe3)2,1.2778
mp-999135,TaCuN2,0.4137999999999993
mp-758086,LiSn(PO3)3,4.1888
mp-30986,Zn3S2O9,3.3649
mp-556703,Ba3Mg(SiO4)2,4.6934000000000005
mp-765856,Li5NiOF5,1.8952
mp-557856,BCl(OF2)2,1.9494
mp-1098251,NaMg6W,0.0
mp-21220,CaIn4Rh,0.0
mp-1096963,CuH6CI3N,0.5112999999999999
mp-557882,BaCr4S7,0.11960000000000015
mvc-10455,ZnCr4O9,0.6021999999999998
mp-17382,Rb2Si3SnO9,3.7986
mp-765208,LiVF4,1.9744
mp-997581,H6C6NO,2.2349
mp-1076409,Sr8MnFe7O20,0.0
mp-1096321,Mg2ZnAu,0.0
mp-31630,Ba2TaCrO6,2.1562
mp-1002224,ErP,0.0
mp-1097268,Mg2SnHg,0.3927000000000001
mp-12661,Cd3In,0.0
mp-17240,RbNa3Li12(SiO4)4,4.589
mp-571406,Ga2Pt,0.0
mp-13512,CaNiGe2,0.0
mp-1035892,Mg14FeSnO16,0.1934000000000005
mp-761344,Li2VP2O7,2.5889
mp-17935,Nd2(ZnGe2)3,0.0
mp-1070356,Rb2Te2Pd,0.5711000000000004
mp-5388,Zn(SbO2)2,2.720800000000001
mp-1039463,MgCd,0.0
mp-13871,P2Pt5,0.0
mp-863062,LiSiBiO4,3.4051
mp-706847,Na17(WO3)19,0.9585000000000004
mp-1033424,BaMg6NbO8,0.0
mp-9855,KHfCuS3,0.7601999999999998
mp-505535,B8Ru11,0.015500000000001181
mp-555462,Al(HO)3,5.0602
mp-16326,DyPPt,0.0
mp-558602,CsAl3(P3O10)2,5.4323000000000015
mp-1035172,Mg14ZnNiO16,3.2115
mp-620862,LiTl3(MoO4)2,3.8133
mp-559660,V2Cu2O7,0.0049000000000000155
mp-12180,NaS2,1.9966
mp-554267,SiO2,5.6122000000000005
mp-707883,CsB6H8O7,2.0912999999999995
mp-772744,Tm2P4O13,5.3691999999999975
mp-8204,LiAlB14,1.2527
mp-1084847,TbTe3,0.0
mp-1039919,LaHfMg30O32,0.11350000000000016
mp-1037605,CsMg30FeO32,1.9578999999999995
mp-767,Yb3Ge5,0.0
mp-644103,CaSiSnO5,3.4619
mp-771174,Ba2B2O5,3.8166
mvc-9795,Ba2AlW2F11,1.4025
mp-571343,Cs(CoSe)2,0.0
mp-540378,VP2O7,1.2816
mp-765693,Mn6O5F7,0.16510000000000002
mp-1038272,Mg30AlCrO32,0.04460000000000086
mp-865201,LuNi5Sn,0.0
mp-773405,Cr3Cu(PO4)4,0.0
mp-10105,UTeAs,0.0
mp-779996,LiFe2O2F3,1.9177
mp-705798,La14Mn15O48,0.01609999999999978
mp-559053,NaY(SeO3)2,4.1636
mp-762693,Li3TiFe3O8,2.1109999999999998
mp-647629,YbMoClO4,0.0
mp-40206,Ca2Nd2Nb3FeO14,2.315500000000001
mp-1096527,LaYCu2,0.0
mp-767577,Li4V2Si3O10,1.8135000000000003
mp-7163,Tb,0.0
mp-861482,LiMnPO4,3.5129
mp-1029504,KNbN2,2.0359
mvc-13150,Ca(FeO2)2,1.8398
mp-19074,TiFeO3,1.6510999999999996
mp-10600,La3AlC,0.0
mp-776134,Li4MnV3(P2O7)4,0.2330000000000001
mp-10608,Y3SnC,0.0
mp-768060,VOF,0.5768
mp-1027908,Mg14FeCo,0.0
mp-776371,Li2Nb2(PO4)3,0.0
mp-1038484,Mg30CdCO32,3.1269
mp-1812,Hg5Au6,0.0
mp-27752,Na6Ge2S7,2.4264
mp-780816,LiMn2(BO3)2,0.012900000000000134
mp-22541,MnNiSb,0.0257000000000005
mp-1069079,FeBiO3,1.3463000000000005
mp-558808,LiAl(SiO3)2,4.9005
mp-697283,H8W(S2N)2,1.9874
mp-1020106,LiB(SO4)2,6.3874
mp-767432,Sr16V8O31,0.43359999999999976
mp-554298,Cu2As2O7,0.0
mp-558894,Ba4Ti2PtO10,1.9973
mp-850142,Li2Mn(Si2O5)2,3.4759
mp-772325,MgCr3(SO4)6,0.17690000000000006
mp-6955,KGeNO,2.6817
mp-9374,MnMoN2,0.0
mp-570270,NbSeCl3,0.7501000000000002
mvc-10230,HoZn(CoO3)2,0.0
mp-32511,Li3V3(PO4)4,1.9907
mp-19854,Pr2In,0.0
mp-15839,NdSbPt,0.0
mp-1075982,BaSr7Co5(CuO8)3,0.0
mp-1036059,YMg14CoO16,0.5325999999999995
mp-766770,LiFePO4,3.3629
mp-764097,Na2Ni3(P2O7)2,3.7435
mp-1079172,PbSe,1.1181000000000003
mp-557836,Na5B2P3O13,5.0787
mp-287,UF4,0.0
mp-1036995,Mg30CoBO32,1.7368000000000006
mp-996997,LiAgO2,0.5004000000000001
mp-754250,NaLuO2,4.0962
mp-2954,Dy(SiAu)2,0.0
mp-765103,LiMnVP2(HO5)2,0.8605
mp-767128,Li2CoSiO4,2.7203
mp-1095506,BaReH9,3.0305
mp-772045,SnSb3(PO4)4,0.0
mvc-11255,Ca(TiS2)2,0.0
mp-559953,Co2P2O7,2.6659
mp-768864,KNdO2,3.8044
mp-1079217,LaGa2Ni,0.0
mp-569390,FeTe2ClO5,2.1340000000000003
mp-667360,CsSbOF4,3.5748999999999995
mp-656887,Ni3O4,0.3815
mp-695890,Mg10Si3(H2O9)2,4.950699999999999
mp-2918,YCuO2,2.5937
mp-1018791,LiY(CuP)2,0.0
mp-1719,PuN,0.0
mvc-14773,CaFe2S5,0.0
mp-3952,BaY2O4,3.2493
mp-1025478,TbAu3,0.0
mp-774344,Mn5Sn(PO4)6,0.0
mp-780333,Li3Bi2(PO4)3,4.1032
mp-570165,CdI2,2.3729
mp-1076960,TmB2Rh3,0.0
mp-566538,Eu3Fe5O12,0.0
mp-3428,SmBPd3,0.0
mp-696019,Na3P2H4O7,3.5798999999999994
mp-1023942,Te2W,1.0435
mp-773047,KNb2PO8,2.2181
mp-772972,Li2Ti2O5,3.7177
mp-765069,TiV15O24,0.2524000000000006
mp-11279,TiBe,0.0
mp-17823,Tl3B3S10,1.8863000000000003
mp-753055,TbBi5O9,1.6102
mp-980052,Yb3In,0.0
mp-1002182,TcN,0.0
mp-40502,CsTiCoOF5,2.3493
mp-17832,RbBaPO4,5.215
mp-770398,NiSnO3,1.7717
mp-771839,Na4Co2C4SO16,0.0
mp-780888,Li(CoO2)4,0.0
mp-698470,LiAlH16(CN)4,3.6569
mp-554164,KLiZnP2O7,4.2904
mp-989609,YWN3,1.1225999999999998
mp-626568,Al(HO)3,3.8913
mp-9495,Yb2Cu(GeO3)4,0.0
mp-557823,SbXeO2F7,2.0896
mp-672214,BePbF4,5.2044
mp-20917,U2Fe3Ge,0.0
mp-849439,Mn3O5F,0.0
mvc-9839,Zn(SbO2)2,1.7082000000000002
mp-862687,CuH6(NCl)2,0.050999999999999934
mp-680221,Ce3Ge5Pd14,0.0
mp-23399,Rb2AgI3,2.5761000000000003
mp-1037189,Mg30CoNiO32,2.7645
mp-1027844,Mg14ZrCr,0.0
mp-1076827,Sr7CaTi3Mn5O24,0.0
mp-765869,CoAgO2,0.2622
mvc-12895,Mg(NiO2)2,0.0
mp-601859,Er(Fe2Ge)2,0.0
mp-22018,Hf(MnGe)6,0.00199999999999978
mp-363,NbGe2,0.0
mp-7962,YbAgS2,0.0
mp-1017258,Mg6BiB,0.0
mp-736390,SrH3C3O7,2.8362
mp-762159,Mn11In25O48,0.0
mp-1094073,S,0.0
mp-949028,Sn,0.7135000000000002
mp-632480,Ag3SI,0.2711999999999999
mp-10711,VSi2,0.0
mp-865105,Dy2Co3Ge5,0.0
mp-1021408,NaMg6Sn,0.0
mp-555021,TePbO3,2.6712
mp-22801,LuSiRh,0.0
mp-864781,LiYb2Hg,0.0
mp-556712,Ga2BiS4,2.5248
mp-1476,ScS,0.0
mp-1033642,Mg14BiBO16,0.7230999999999996
mp-754454,Cd(AgO2)2,0.5699000000000001
mp-853130,TiNiO3,2.5877
mp-743640,Li3La8Ti9Cr3O36,1.2976
mp-771420,Na3VSiCO7,1.8558
mp-1025456,CaZrF6,6.6727000000000025
mp-764558,VOF2,1.5966999999999998
mp-770347,TbNiO3,0.0
mp-743617,KMnH4Cl3O2,4.0871
mp-862902,PmDyMg2,0.0
mp-18021,Ge3Mo5C,0.0
mp-1078280,Ca2GaPd2,0.0
mp-505063,Nd(Mo4O7)2,0.3393999999999995
mp-23197,TlI,1.8128
mp-1101049,Ti5TlS8,0.002699999999999925
mp-1095533,KAsO4,0.8765
mp-618,Pd7Se2,0.0
mp-560132,Nd2SiO5,4.7758
mp-1078996,Nb3Si2,0.0
mp-767685,LiMn2P2HO8,3.3759
mp-759303,CsB10H13C,4.8432
mp-776850,Li2Mg2(WO4)3,4.2023
mp-694829,CoPO4,1.0241
mp-1096346,Li2MgAg,0.4607000000000001
mvc-5444,MnO2,0.02080000000000015
mvc-3616,Mg3Ni2O7,0.6126999999999998
mp-744801,RbVH24(SO10)2,2.676
mp-27424,BaCu4S3,0.03790000000000049
mp-1008223,CaSe,3.1581
mp-763682,Li(FeO2)3,0.0
mp-639135,Pr3RuCl3,0.0
mp-769915,La4Ga2O9,3.8863
mp-1095230,CaSeO4,3.2537000000000003
mp-663,NdGe,0.0
mp-625871,Sr(H2O3)2,0.5135
mp-1936,TaAs,0.0
mp-556287,NaBi2Sb3O11,2.4062
mp-759302,Yb2TiO5,0.0
mp-1095440,CdS2,1.2312000000000003
mp-541156,Ge4PbO9,3.1907
mp-989179,Mo4HS8,0.0
mp-772563,Li2VO2F3,2.5101
mp-775626,NaV5O8,1.2919
mvc-9645,BiO2,0.0
mp-698695,CaFe2Sb2(PO4)6,2.8711
mp-691131,Bi6W4O21,2.4698
mp-556414,CsTmSeCl2O3,4.3558
mp-28299,USe2O7,2.1387
mp-781697,Li2MnNbO4,0.0
mp-28566,NaTiSe4,0.9159999999999999
mp-540981,CsHSO4,5.2778
mp-684962,VSe2,0.0
mp-984358,Au3O,0.0
mvc-5152,Mg(CuO2)2,0.0
mp-763818,Li5MnO3F,0.3656999999999999
mp-19502,BaTi18Mn3O38,0.003599999999999603
mp-1091364,LiDySn2,0.0
mp-4582,NdRhO3,0.6467999999999998
mp-1038281,Mg30MnCoO32,2.398200000000001
mp-771549,Li2Ti3VO8,0.2568000000000001
mvc-10210,Zn(WO2)2,0.3039000000000001
mp-706624,H9OsN7Cl2,0.08870000000000003
mp-685217,Na8Ga42O67,0.7827999999999999
mp-1510,Nd2Fe17,0.016599999999999504
mp-1017478,LaMg6Cd,0.0
mp-863881,Li2MnP3O10,0.0
mp-706714,Li9Mn15O32,0.5427
mp-557637,Hg2SeO3,2.3228
mp-20740,Tl4Te3Pb,0.11010000000000007
mp-1039913,LaMg30BO32,2.1675000000000004
mp-542850,Na2RuO4,0.0
mp-771383,Li5Mn2P2(CO7)2,0.0
mp-552016,YbBi2BrO4,0.0
mp-13740,AgAsS2,1.4968
mp-1031671,Mg6CrNiO8,0.0
mp-28590,Hg4As2I3,0.8176999999999999
mp-1019784,K2SN2O5,3.2162
mp-867177,PrCdHg2,0.0
mvc-272,Sr2YCu2SnO7,0.0
mp-558920,NaNbO3,2.4098
mp-1036050,Mg14MnNbO16,0.2123999999999988
mp-20550,Ce3PbC,0.0011999999999998678
mp-780530,Na2MnPCO7,0.6287
mp-766675,Li3V3P8O29,0.5936
mvc-1868,Sb(PO3)4,1.6088000000000002
mvc-3077,Mg4V5(TeO6)3,0.2610999999999999
mp-541304,NaMo3P3O16,1.8000999999999998
mp-560266,Na3B5SO8,3.8692
mp-704325,Gd4Mo7O27,2.8488
mp-779551,Ba4Br6O,3.3563
mp-4009,BaPdS2,0.3844000000000003
mp-771100,Li3Ti(NiO2)4,0.0
mp-867318,Eu3Tl,0.0
mp-782818,Mn12O5F19,0.0
mp-764349,Li3MnO2F,1.8572
mp-29118,Ho3Ge3Ir2,0.0
mp-1008682,TiS2,0.0
mp-559689,LiAlSiO4,5.0525
mp-867134,SmCl2,0.0
mp-559940,AlS2NCl6,1.6801
mp-10027,TiSe,0.0
mp-1003403,Mn8HO16,0.28280000000000016
mp-581161,VPO5,1.9628
mp-540813,K3ReC4(N2O)2,2.3807
mp-762247,LiCoSiO4,0.7024999999999999
mp-775103,V4(OF3)3,1.4002
mp-1098399,KHfMg30O31,0.5419999999999998
mp-1026856,KMg14Nb,0.0
mp-21392,Tb3InC,0.0
mp-759432,LiCu(PO3)3,0.6513999999999998
mp-567381,KHgC2,0.0
mp-1075490,Mg5Si6,0.0
mp-778249,Li4TiNi3Sn2(PO4)6,2.3187
mp-763113,FeOF,0.0
mp-18503,Al2Re3B,0.0
mp-774422,LiV(Si3O7)2,2.246
mp-8014,RbRuF6,1.264
mp-1099265,YMg6Cu,0.0
mp-555884,ErCuTe2ClO6,0.3927000000000001
mp-686947,EuMoO4F,0.1003
mp-579738,Li9Fe3P8O29,2.5478
mp-1031144,LiHfMg6O7,0.0
mp-569954,SrCd11,0.0
mp-565303,K2Fe(CO)4,3.5147000000000004
mp-849246,Ti2CdO5,2.5113
mp-1038115,KMg30MnO32,1.8307
mp-862776,TmPaOs2,0.0
mp-1035023,LiHfMg14O15,0.0
mp-540503,Li6V3P8O29,1.4842
mp-1039288,Ce2Mg,0.0
mp-35185,NbBi3O7,1.7448999999999997
mp-1096960,CsY(MoO4)2,3.6005
mp-973442,Lu2AgPt,0.0
mp-4562,La(GeRh)2,0.0
mp-631381,TeRuSe,0.0
mp-761716,MnFe2O3,0.0
mp-1097478,Ba2CdHg,0.10729999999999996
mp-28541,Bi2P4O13,4.5172
mp-975129,Rb,0.0
mp-20532,PrSb2Pd,0.0
mp-31532,CoPO4,0.8034999999999999
mvc-10242,Ca(FeO2)2,1.3407
mp-22892,RuBr3,0.0
mp-5830,Na3AsS3,2.5165
mp-756389,Lu2TeO6,2.3933
mp-600037,SiO2,5.4426
mp-772605,NaSnAsCO7,1.7495
mp-849992,La20Cu9O40,0.0
mp-707535,H4C(N2O)2,2.3823
mp-554774,RbLu(SO4)2,5.8838
mp-1016883,ZrZnO3,0.0
mp-686028,Sr6Nb2O11,3.2066
mp-762789,LiMnP2O7,0.8826
mp-1076631,Sr7CaFe6(CoO10)2,0.0
mp-1031492,Mg6NbSnO8,0.0
mp-12903,YAgTe2,0.8989000000000003
mp-771199,V3FeO8,0.3901999999999997
mp-981512,YbLuPt2,0.0
mp-27259,CsCrI3,0.0
mp-567386,Cs2Cd3Te4,1.5570000000000002
mp-723020,Al2Si2H5C2NO10,0.0
mp-1025390,LaSi2Ag,0.0
mp-1016071,Cr3N4,0.0
mp-607841,Tl(CO)2,3.3303
mp-1097567,HfGaAu2,0.0
mp-1038016,CaMg30SiO32,2.043799999999999
mp-669351,Rb3Ce(PSe4)2,1.3493000000000002
mp-767660,LiMnCO3F2,1.5588
mp-28920,Tl5Se2Cl,0.5641000000000003
mp-735524,VP2(HO)6,2.8845
mp-974682,RbGaH2,1.3521
mp-866116,HoTaRu2,0.0
mp-14765,Ba(Ni5P3)2,0.0
mp-1033183,Mg6AlFeO8,0.0
mp-961691,HfNiGe,0.0
mp-867186,CeZn2Ag,0.0
mp-1097443,Nb2VRu,0.0
mp-647343,PBr7,1.2227
mp-1036087,Mg14MnSiO16,1.2005999999999997
mp-10351,Tm3GaC,0.0
mp-715474,MoO3,0.5050000000000001
mp-1028854,Te2MoWSeS,0.0
mp-753795,Li3BiO3,2.9917
mp-2432,CaMg2,0.05430000000000002
mp-1034045,RbHfMg14O15,0.1192000000000002
mp-18305,Rb3AsSe4,1.3144
mp-640067,Ni4B3,0.0
mp-43188,Na8BeAl4Si7(BrO12)2,4.1873000000000005
mp-554674,ZnGa3N3O,0.09980000000000012
mp-8035,B4C,0.0
mp-866207,LuCdPd2,0.0
mvc-5359,Ca(SnO2)2,1.5864000000000005
mp-38108,Ba3Pt2O7,0.0
mp-780828,V3(O2F)2,0.6698
mp-779396,LiV6O7F5,1.2352
mp-744347,RbVH4(OF2)2,2.5428
mp-1018757,LaZnGa,0.0
mp-569373,Li8Zn2Ge3,0.0
mp-662570,BaB2F8,7.875
mp-772195,Dy3Al5O12,4.5685
mp-14336,Cs2Ni3Se4,0.6301000000000001
mvc-14989,Al2(WO4)3,1.8538
mp-754472,HoCuO2,2.5410000000000004
mp-704534,K4Zr3Mn(PO4)6,2.8643
mp-3335,Sm2Ti2O7,2.7404
mp-1096269,LiYZn2,0.2568999999999999
mp-16380,Nd2Te3,0.1745000000000001
mp-1025380,Cr2FeTe4,0.0
mp-510482,Er(Ni2As)2,0.013099999999999673
mp-5984,Y(BRh)4,0.0
mp-31994,LiMnPO4,3.9967
mp-972160,YbMgO3,0.0
mp-764943,Fe4O3F5,1.483
mp-779227,Li24Ti11CrO36,1.4433999999999998
mp-555070,BaBe2(BO3)2,5.5996000000000015
mp-10436,Tb(AlSi)2,0.0
mp-763386,Li2Co2Si2O7,2.84
mp-570860,DySn3,0.0
mp-615173,CuBi(WO4)2,1.2744999999999995
mp-761439,LiMn(SiO3)2,0.7142
mp-863754,KYSiS4,2.7932
mp-1034560,SrMg14CrO16,0.8229000000000006
mp-667309,Li2SeO4,0.010499999999999956
mp-19581,Mg3Cr2(SiO4)3,3.4798
mp-961658,VFeSe,0.0
mp-767787,LiVSiO4,2.1243000000000003
mp-1094779,MgZn,0.0
mp-765416,Li2Fe2Si8O19,3.0309
mp-2078,TiCu,0.0
mp-13973,Gd2SeO2,1.3163000000000005
mp-1037480,YMg30CrO32,0.4753000000000007
mp-6071,Sr3LiIrO6,0.0
mp-1029379,Te2MoWSeS,0.1192000000000002
mp-566000,SrCr2O7,2.4835000000000003
mp-764467,Na2FeO3,0.7981
mp-1038676,BaMg30NbO32,0.3720999999999997
mp-559765,KHg2S(ClO)3,2.6843
mp-1094659,MgGa2,0.0
mp-557026,ZnS,2.0263
mp-777715,Li32Ti3Cr13O48,1.0789
mp-755018,RbTaO3,2.3882
mp-1028075,Mg14MnCr,0.0
mp-1074380,Mg4Si3,0.0
mp-13686,Nb5Si3,0.0
mp-22180,Dy(GePd)2,0.0
mp-1035374,Mg14CuSnO16,0.20910000000000029
mp-755943,CaPbI4,2.6263
mvc-519,Ti3(P2O7)2,0.014199999999999768
mp-753785,NbOF3,3.2629
mp-504304,LiCuPO4,0.327
mvc-2898,Zn(SnO2)4,0.6476000000000006
mp-770297,Li4Cr3NiO8,0.0
mp-558571,Sc2Te5O13,2.9509
mp-6653,Ba2ErNbO6,2.8560000000000003
mvc-15194,Y4Be6Fe3(SiO5)6,0.0
mp-571266,GaCl3,4.2434
mp-20806,Gd(CuGe)2,0.006199999999999761
mp-973300,Lu3Ga,0.0
mp-9344,TiTlCuTe3,0.027900000000000702
mp-1073136,Mg2Si3,0.0
mp-14292,Ba2NdSbO6,3.6649
mp-850245,Li5Mn6(BO3)6,0.0
mp-1095851,YMgPd2,0.0
mp-1097467,ScZnAg2,0.14219999999999988
mp-1078667,GeH4,1.1509
mp-571020,CsMgH3,2.9047
mvc-11489,Ca2FeN2,0.0
mp-542766,Mo(PO3)3,4.242800000000001
mp-690929,Cs4MgZr3(PO4)6,3.7949
mp-1026758,NaCeMg14,0.0
mp-15307,ErSi3Rh5,0.0
mvc-3481,CaSbF5,4.6183
mp-16287,NdRh3C,0.0
mp-28686,Ni(H2N)2,1.1222
mp-567567,CdI2,2.3515
mp-557126,NaPr(Si3O7)2,4.789
mp-1031339,KMg6TiO8,0.0
mp-549033,CoNi(PO3)4,3.0822
mp-768971,Li(BiO2)3,0.0
mp-565978,WCl3O,1.719
mp-672297,Cr(GaS2)2,0.0
mp-998324,RbCaCl3,5.3304
mp-1883,SnTe,0.04279999999999973
mp-781948,Na2Ti2O5,3.9
mp-559454,Cs2KFeF6,4.095599999999999
mp-850086,Ni3S2,0.0
mp-865190,Lu3Ni7B2,0.0
mp-567022,K3Bi5(AsO4)6,3.4166000000000003
mp-1280,ErTe,0.0
mp-755716,HoHO2,4.1921
mp-8866,La10Se19,0.5750000000000002
mp-982195,KNd3,0.0
mp-764792,Li4Ni8O9F7,0.1059000000000001
mp-680742,GdP5,0.19890000000000008
mp-569265,Mg3Pt,0.0
mp-779802,Li3MnV(PO4)3,0.2045999999999999
mp-715262,FeO,1.3506
mp-12012,KPrGeSe4,1.6332
mp-1080567,Sm(NiSb)2,0.0
mp-572797,Cs2IrF6,0.0
mp-566127,SrFe3(PO4)3,1.4011999999999998
mp-721624,Ca5P3HO13,5.2116
mp-706239,NaCa2Mg2V3O12,3.3296
mp-769010,Li6Bi5O14,0.0
mp-1066795,Sm3Ga,0.0
mp-759117,Li2SbP3O10,3.8109
mp-568324,Cr5Ge3,0.0
mp-697856,Al2CoO4,1.3631000000000002
mp-565700,Ti8O15,0.0
mp-559557,Cs2Na2B10O17,4.7125
mvc-16052,Sr3MgCo2S2O5,0.0
mp-760635,Yb4Br6O,3.0092
mp-683863,V3P4Pb2O17,2.0313
mvc-15945,AlCuO3,0.0
mp-1076186,Ba3Sr5Ti7MnO20,0.0
mp-700,GeSe,0.8988
mp-556528,In4GeS4,1.0698000000000003
mp-706657,Al13Si5H18ClO38,4.2833000000000006
mvc-665,AlSb(WO4)2,1.5773
mp-677563,ZnCuHg4As7S12,0.0
mp-646356,CoBC8(OF2)5,3.1832
mp-626827,Fe4H14O13,1.8595
mp-759230,NaAl11O17,4.402099999999999
mp-865712,Ti2MnNi,0.0
mp-1028294,SrMg14V,0.0
mvc-13110,VO2,0.4597999999999999
mp-22698,DyFeSi,0.0
mp-8630,SbIrS,1.3963
mp-642651,Yb2Ge4Ru3,0.0
mp-849282,Li9V12Te7O48,1.7585
mp-13268,GdCo4B,0.0
mp-1079795,Ga2Fe2S5,0.0
mp-5176,Y(SiNi)2,0.0
mp-1039594,CeMg,0.0
mp-754182,TbZr4O10,0.0
mp-1093768,MnV2Fe,0.0
mp-777952,Na4Ni7O16,1.0172
mp-761394,Li4Fe2Si3O10,3.1586000000000003
mp-761739,LiCoSnO4,0.7692999999999999
mp-757399,La12Cu6O25,0.0
mp-779818,Mn2O3,0.0
mp-558395,CoWO4,2.2831
mp-680639,Cu3Pd,0.0
mp-763950,V3O5F,0.0
mp-571559,CdI2,2.3544
mp-766284,Sr4(RuO4)3,0.0
mvc-5988,Ca2MoWO6,1.9273
mp-677468,Ba16Tb8Nb5(SnO16)3,0.0
mp-753818,Li3(FeS2)2,0.0
mp-1093566,BaSrCa2,0.4123999999999999
mp-690866,LiMnPO4,3.4177
mvc-7761,Ca2Sn3O8,2.0574
mp-565699,NaNiAsO4,2.7825
mp-1100795,ZrCl3,0.11750000000000015
mp-559037,Rb3Nb6SBr17,0.5722
mp-1034278,Mg14TiSnO16,0.0
mp-1561,TbSe,0.0
mp-1100920,VH10S2(NO4)2,1.7409
mp-669378,Ce3Si2S8Br,0.0
mp-999187,SiHgP2,0.0
mp-1025853,Te2Mo3(SeS)2,0.0
mp-31442,Li2InRh,0.0
mp-865862,CeAgAu2,0.0
mp-7376,Sr3(AlSn)2,0.0
mp-10172,Na,0.0
mp-1076836,K2Na2Mo3WO12,0.0
mp-978990,Tl2(IO3)3,1.9007
mp-974358,Ir3Ru,0.0
mp-684109,LiBiP2O7,3.9872
mp-617230,MnF3,0.01859999999999995
mp-754964,HfZrO4,4.071999999999999
mp-761514,Li3Fe(PO4)2,1.925
mvc-2198,MgCo(PO3)4,3.0614
mp-862770,Tc3Ir,0.0
mp-1027922,Mg14ZnCd,0.0
mp-13063,Tb2O3,4.1342
mp-540257,Li2CoP2O7,3.0443
mp-14620,Tm2CdSe4,0.6581000000000001
mp-32679,Nb10C7,0.0
mp-974617,Hg3Pd,0.0
mp-18739,BaYMn2O6,0.0
mp-622520,EuMn2O5,0.9827
mp-850080,Li4V3Cr3O12,1.1799
mp-9960,Y3TlC,0.0
mp-861553,Li6Mn3Cr2Fe3O16,0.3721000000000001
mp-567143,Lu14(InCo)3,0.0
mp-862941,PmMgRh2,0.0
mp-1095656,LuAsSe,0.1377000000000006
mp-1029213,Te2MoWSeS,0.0
mp-1037122,Mg30TiCoO32,0.4868000000000006
mp-865913,Li2AcSn,0.0
mp-1073313,MgSi2,0.0
mp-767575,Li2V(SiO3)2,1.8922
mp-543085,La4NiO8,0.8567
mp-1079690,GdSiAg,0.0
mp-560322,K2RuN3Cl3O5,2.0797
mp-621351,SmInAu,0.0
mp-1077903,Tl2Pd3Se2,0.0
mp-25545,MnO2,1.609
mp-27826,K2MoCl6,0.015199999999999882
mp-5693,NaCrS2,1.0179999999999998
mp-639100,MoF3,3.617
mp-1099674,Sr2Ca2Mn3FeO12,0.0
mp-28589,Rb3Ge2Br7,2.8982
mvc-7987,Mg3Fe4(WO4)6,1.6917999999999995
mp-23948,Rb3MgH5,3.0927
mp-777867,Li2P8W3O29,2.1807
mp-13191,Sc6ReO12,0.08889999999999976
mp-762767,Li3Fe(Ni2O5)2,0.0
mvc-5778,Ca2TiWO6,0.3479000000000001
mp-1071209,ErCo2,0.0
mp-22821,SnP2PbO8,3.7068
mp-1065359,GaFeNi2,0.0
mp-777233,BaYF5,6.6724000000000006
mp-7035,CaMgAsO4F,3.9326
mp-762866,Li3MnCo3O8,0.3296999999999999
mp-1098445,LaHfMg30O32,0.0
mp-27609,U3Fe2Si7,0.0
mp-675021,Nd16Zr16O49,0.0
mp-32436,LiV2(PO4)3,1.3118999999999998
mp-715517,VO2,0.9538000000000002
mp-9489,NaSmTiO4,2.4268
mp-540028,LiVP2O7,1.9898
mp-11607,Si3N4,4.026700000000001
mp-762427,Li3(FeO2)5,0.4722999999999997
mp-674947,Zr2N2O,1.6647000000000003
mp-20026,Pu2Co,0.002600000000001046
mp-757853,Na4Ti5O12,2.9088
mp-853205,Li7Fe(O2F)2,2.6244
mp-757466,Li3Si2BiO7,3.7837000000000014