mpid,formula,gap pbe
mp-685526,Ca28(Yb5S16)3,0.0
mp-1026711,Mg14SiB,0.0
mp-622122,U2(P2O7)3,0.2629999999999999
mp-7972,RbLaO2,3.522
mp-763574,LiV2(PO4)3,1.2041
mp-775127,Li4Fe3O8,1.0163
mp-765319,LiMnOF2,1.3964
mp-865118,NaPrAu2,0.0
mp-27692,BaB4O7,5.1593
mp-675747,V(FeSe2)2,0.0
mp-644533,Yb2Ga10Ru3,0.0
mp-29370,Na3BP2,1.8442
mvc-12198,Fe(SiO3)2,0.0
mp-1025333,AgWS4N,0.0
mp-558019,Ce3Si2BO10,0.0
mp-568841,Np3Te4,0.0
mp-979417,DyYCd2,0.0
mp-1095139,SnPO3,0.6438999999999999
mp-558016,CaMgAsO4F,3.7523
mp-541581,KSO3,4.9636
mp-686109,Cu23(Sb4S13)2,0.0
mvc-3020,Mn5(TeO6)3,0.1575000000000002
mvc-2589,Co5O7,0.0
mp-18795,Mn3TeO6,1.2545999999999995
mp-568644,K9InSe7,1.8913
mp-851051,MnPO4,0.0
mp-914303,ZrCo2Sn,0.0
mp-705744,Fe5SiO8,1.3051000000000004
mp-566043,Ba3V4PbO14,3.1539
mp-541022,MnCr2O4,2.4181
mp-628305,K2MnSnSe4,0.2896000000000001
mp-764779,Ni6OF11,0.4675
mp-1019054,ReC2,0.0
mp-1073532,MgSi2,0.0
mp-16958,LaNi5P3,0.0
mp-766067,Al15Fe9O32,1.6422
mp-569304,C,0.014800000000000037
mp-531213,Ca13Y6F43,0.6283000000000003
mp-863288,Na3V5O23,0.26930000000000004
mp-1063660,CsAl,0.0
mp-1032475,Mg6ZnCO8,0.3601000000000001
mp-601413,RbVF3,2.8444000000000003
mp-558938,Zn4SiTePbO10,2.2881000000000005
mp-770111,PrBiO4,0.5491999999999999
mp-19658,Rb2Cr2O7,2.765
mp-579728,K3Nb6VO19,2.3385
mp-1018009,Li2MgSi,0.08880000000000042
mp-7791,Li2GeF6,5.7409
mp-555284,Ba2NdAlO5,3.6856
mp-1017477,LaMg6W,0.0
mp-30789,U2Mo,0.0
mp-865661,YbMgCd2,0.0
mp-25634,Li3V2(GeO5)2,0.009399999999999851
mp-863286,CoP3NO9,1.2072
mp-38008,Li2CdCl4,3.6297
mp-1009694,ReN,0.0
mp-570948,LiCaGaN2,2.1319
mp-566194,LiCaCoF6,2.8697
mp-625837,Be(HO)2,5.4109000000000025
mp-1068359,Cd(BrN)2,0.6769000000000001
mp-771907,Li4Mn5Sn3O16,0.0
mp-1096504,Sr2LiPd,0.0
mp-30686,Zr2Ga3,0.0
mp-853271,Li5Mn2(PO4)3,4.1097
mp-657543,SrAl2(SiO4)2,0.8165
mp-542013,Rb4Zr3Se14,1.4609
mp-4854,NdScGe,0.0
mvc-3648,Ca3Cu2(SiO4)3,0.4257
mvc-11438,CoSe2,0.0
mp-19807,Co3(SnS)2,0.0
mp-28554,Ca2AsI,1.5571000000000002
mp-769432,Co15O28,0.4835
mp-1040126,LiLaMg30O32,4.230499999999998
mp-649253,NbClF8,3.263
mp-975109,RbNa3,0.0
mp-774736,LiCuS,1.6984
mp-948,ZnTe,0.0
mp-775990,Fe3Ni2Sn(PO4)6,0.0
mp-990527,FeCo,0.0
mp-13173,PtN,0.0
mp-28571,La2Br5,0.3429000000000002
mp-645339,Fe5C2,0.0
mp-1027294,Mo3W(SeS3)2,0.5340000000000003
mp-554462,TiS,0.0
mp-1035533,Mg14FeBiO16,0.0
mp-1094941,MgSb,0.0
mp-16092,Tm3Co29(Si2B5)2,0.012199999999999987
mp-672705,YbS2,1.2066999999999997
mp-17706,Zr5Ge3,0.0
mp-1038118,CaMg30SnO32,1.5142999999999995
mp-764543,LiFe2(BO3)2,1.7605000000000002
mp-851005,Li2Mn3(BO3)3,0.5482999999999998
mp-569197,GdNiSb,0.3894000000000002
mp-768815,NaSbAsCO7,0.0
mp-1100161,Mg6CrC,0.0
mp-675623,CsClO4,5.9201
mp-780144,Li4MnP6(H4O11)2,4.2129
mp-22229,TbInCu4,0.0
mp-574272,Ca5Pb3,0.0
mp-1097356,Y2PtAu,0.0
mp-757716,LiTi(Si2O5)2,0.3840000000000003
mp-1093728,Ba2LiIn,0.09460000000000024
mp-554198,CaMg(SiO)2,0.0
mp-25607,NiSnH12(OF)6,3.8089
mp-707339,AsH6NO4,3.6288
mp-571245,Ho2Fe14C,0.0
mp-675634,KBi2F7,4.6755
mp-1034054,KCeMg14O16,0.14639999999999986
mp-690847,AsH2C2NCl2O,0.4762
mp-761973,Li2Co2P2O9,0.5110999999999999
mp-766885,Sb3PO7,2.2365
mp-1087509,P4Os,0.6758000000000006
mp-30182,ThAl3Ni2,0.0
mp-649086,GaFeO3,2.1045
mp-1016662,Mg6CrB,0.0
mp-1079040,CsDyBr3,0.0
mp-7708,TlCdS2,0.0
mvc-12661,Zn(FeO2)2,1.6948000000000003
mp-753793,Ba2YF7,6.8971
mp-974572,Rb3Si,0.0
mp-28505,Ba(AlTe2)2,1.5454
mp-558172,Ca(PtO2)2,0.0
mp-560441,BaZn2Si2O7,3.3032000000000004
mvc-8319,Cu3(WO3)4,0.0
mp-24585,LiZnPH2O5,4.0249000000000015
mp-1099232,Mg6FeNiO8,0.0
mp-971701,ZnAs3,0.0
mp-773146,Li2CuPO4,1.1588999999999992
mp-9075,CdCuF4,0.9325
mp-753654,LiSnPO4,3.0124000000000004
mp-1026734,Mg14SnC,0.0
mvc-2601,CaCo5O7,0.1750999999999996
mp-864244,Eu2Fe2O5,0.0
mp-1056,Tb2O3,4.0760000000000005
mp-769733,LiMn7O12,0.0
mp-35899,LiMoO2,1.8266
mp-773717,Na3Li3Fe2P2(CO7)2,3.7783000000000007
mp-1097355,LaScAu2,0.0
mp-1093777,BeHPt2,0.0
mp-31373,H18SO12,5.4084
mp-770564,Eu3WO6,0.0
mp-570229,ThBr4,2.8181
mp-22464,NaO3,0.6024
mp-569093,U3Si11Pt23,0.0
mp-19127,Sr2FeMoO6,0.0
mvc-12664,MgNiO2,2.8628
mp-1027835,Mg14ZrW,0.0
mp-768789,LiBiB2O5,3.0802000000000005
mp-863685,Pm2GePd,0.0
mp-25699,CaMnSiHO5,1.3829999999999996
mp-778565,Li2AlFeO4,3.0568
mp-10167,Na3SbS4,0.0
mp-771214,Rb2S2O7,5.1058
mp-695251,Ca2Al4Si4H18O25,0.1189
mp-37614,Al2NiO4,3.7598
mp-773305,Mn3FeO8,0.0
mp-767101,WO2F,0.0
mp-1068164,Tb2InNi2,0.0
mp-554057,KPr(SO4)2,5.5718000000000005
mp-23552,Er(IO3)3,3.4610000000000003
mp-25608,V2NiP2(H4O7)2,2.3598
mp-20563,Ba(CoAs)2,0.0008999999999996787
mp-769778,Ca2In2O5,1.3036000000000003
mp-629476,RuC3SeO3,2.1874
mp-21201,LaGa3Pd2,0.0
mp-642779,Y2V2O7,0.0
mp-631435,ReRuBr,0.0
mp-1078181,SiBr3,3.9433
mp-1009489,RbTe,0.0
mp-5662,Ce2Fe17N3,0.0
mp-677520,KBa6Zn4(GaO3)7,2.4589
mp-570298,Ba(SbAu)2,0.0
mp-761722,LiVCoO4,1.4663
mp-1008833,NpN2,0.0
mp-758229,TiCu3O4,0.13450000000000004
mp-997003,LaAuO2,2.7162
mp-554923,Sr(GaO2)2,2.6751
mp-690435,Li7Mn11O24,0.8165999999999998
mp-2738,DyNi,0.02550000000000008
mp-1079885,LiSbS2,1.0716
mp-27296,ZrTi2O,0.0
mp-134,Al,0.0
mvc-2614,MgMnO2,0.6863999999999999
mp-631462,BeTcSe,0.0
mp-9211,Tm2Fe2Si2C,0.013099999999999673
mp-561855,Ba2CoWO6,0.0
mp-6760,Na3La9B8O27,4.0102
mp-1030794,RbNaMg6O7,0.0
mp-973886,Lu2CoRh,0.0
mp-864745,Na3ZrF8,0.0
mp-1032578,CsYMg6O8,0.0
mp-21981,YNiSn2,0.06320000000000013
mp-555843,Ag3AsS3,1.6989
mp-15335,Lu2Cu2O5,0.5132000000000003
mvc-4919,Mg(AgO2)2,0.0
mvc-8040,Zn2Ni3O8,0.0
mp-10931,HoSF,1.2996
mvc-765,YTa(WO4)2,1.9435
mvc-11164,Ca11(FeN5)2,0.5556999999999999
mp-779940,Li4CoO4,1.1866
mp-975333,LiCaO3,0.0
mp-651772,UTe5,0.0
mp-707985,K3Na3TeP6(HO4)6,3.1763
mp-764047,LiVPO5,2.2049000000000003
mp-1078668,NiPbO3,0.0
mp-8201,Rb3PdF5,2.0957
mp-569294,NdB2Rh2C,0.0
mp-683971,Sm15(Ga11Ni13)4,0.0
mvc-6508,Mg3Ni3(AsO4)4,2.3203
mp-7573,Co(BW)2,0.0
mp-29457,Ba2Cu5F14,0.055300000000000016
mvc-9835,LaMgTiCrO6,2.277100000000001
mp-662789,Te3As2(SF4)3,2.0706
mp-6616,Ba2HoCu3O7,0.0
mp-755435,Tl2Au,0.0
mp-556122,BaCa(PO3)4,5.5237
mp-675872,Li2UBr6,0.14450000000000007
mp-559955,Pr6Si4S17,2.5372000000000003
mp-9934,BaMgSi,0.0
mp-1076439,Ba2Co2O5,0.0
mp-1095880,CsTl2Bi,0.8870000000000002
mvc-2508,Sr2YTlW2O7,0.5541
mp-770582,Li8CrO6,1.0428000000000002
mp-866154,TiBeIr2,0.0
mp-764791,Li2Mn(SiO3)2,3.4471
mp-769741,Li4Cr3CoO8,0.7871999999999999
mp-13009,SmCrGe3,0.0
mp-30494,ScCd3,0.0
mp-5068,DyZrSb,0.0
mp-756299,Li4HfO4,4.224
mp-1016070,CrN2,0.0858000000000001
mp-5739,U2SN2,0.0
mp-13897,K3UF7,0.5996999999999999
mp-999503,MoN,0.0
mp-706597,Al2FeO4,2.8189
mp-1019052,ReN,0.0
mp-2406,Mg5Pd2,0.0
mp-697820,BaLaMnInO6,0.0
mp-973839,PdAu3,0.0
mp-773610,Na2FeAsCO7,2.1419
mp-1019740,GaB3N4,3.710900000000001
mvc-3034,Mg4Co5(TeO6)3,1.4281999999999997
mp-764700,Li9Cr5O12,1.4592
mp-738635,NaZnP2HClO7,0.0
mp-626735,BaH4O3,3.9758
mp-3455,Er(NiP)2,0.0
mvc-4945,CaTi2O4,0.0
mp-985587,Al2O3,4.8041
mvc-15456,La2MgMoO6,0.0
mp-25717,Rb2NiH8(CO5)2,4.0262
mp-561418,Zr3O,0.0
mp-973965,Nd3Ag,0.0
mp-566199,V4HgO10,0.0
mp-743935,Zn2H10N12O5,2.0967
mp-1026654,Mg14SnC,0.0
mp-637255,Ti2Sn3,0.0
mp-781081,VOF3,3.1091
mp-686281,Na2TbO3,0.0
mp-1068906,CeSi3Ir,0.0
mp-2089,ZrTe3,0.0
mp-644264,Ca4Mg4Fe3H22,1.4456000000000002
mp-609092,MnAgO4,0.7078000000000001
mp-8760,Dy5P12Ru19,0.0
mp-559861,NbBi(TeO4)2,2.5161
mvc-835,Mg(Co2O3)2,0.3072999999999997
mp-510315,Ce(GeIr)2,0.0
mp-777686,Li9Mn3(WO4)7,2.2443
mp-540498,Fe2P3O10,0.010399999999999745
mp-862921,PmInRh2,0.0
mp-3187,BaCeO3,2.2207000000000003
mp-27437,Zr(IO3)4,3.1751
mp-1077225,HfPd5,0.0
mp-561469,Nd6S4N3Cl,1.2028000000000003
mp-616541,Ru(CO)4,2.2221
mp-541610,GeBr2,2.597
mp-559852,CsUGa(PO5)2,2.2695
mp-570922,MgCl2,4.9060000000000015
mp-642650,LiP(HO)2,5.3164
mp-23261,I2O5,2.7607
mp-864890,Hf2FeIr,0.0
mp-1096237,LiIn2Cu,0.015200000000000102
mp-27428,KBrO4,3.0759
mp-505626,Cr12P7,0.005399999999999849
mp-867927,LiVIr2,0.0
mp-1097401,Mg2CdPd,0.3687999999999998
mp-766365,BaCaI4,3.5357000000000003
mp-733489,SbHC2NCl11,1.9922
mvc-11742,Zn(FeS2)4,0.0
mp-5256,KCuC2,2.2588
mp-21873,NiAs2,0.0
mp-647243,Tm2Ga10Os3,0.0
mp-777394,Sn2N2O,0.7619000000000007
mp-11358,TaCo3,0.0
mp-1065309,ZrAl3,0.0
mvc-7383,ZnCr2O7,2.4293
mp-1028346,Mg14NiW,0.0
mp-781504,Li2CrP2O7,2.5196
mp-1028194,LiCaMg14,0.0
mvc-2341,Ba2MgCuMo2F14,0.8327999999999999
mp-1099083,Mg14FeSi,0.0
mp-755998,Zr3N2O3,2.6600999999999995
mp-5898,La(SiNi)2,0.0
mp-971712,ZnCdS2,1.3684000000000005
mp-622602,NaMoAsO6,2.6293
mp-767282,Li2MnSi3O8,2.6554
mp-998430,CsInI3,1.4545
mp-605437,FeHO2,1.9678000000000004
mp-767979,Li2MnOF2,1.5452
mp-11947,LiAlAg2,0.0
mp-583645,BaCaSn3,0.0
mp-867741,LiCuF4,0.0
mp-762521,LiMn3Al2(HO2)6,0.2887
mp-766784,V3CoO8,1.1212
mp-1100068,BaSr7Co5Cu3O20,0.0
mp-22209,Cr3AsN,0.0
mp-1077210,LuGa2,0.0
mp-39866,BaSm4Si3SeO12,2.5404
mp-22343,Ce(GeRu)2,0.003499999999999837
mp-504838,CsPS3,1.9592
mp-753940,KLiMnS2,0.5546000000000002
mp-554116,BaPb2BrF5,3.2598
mp-753226,SmAgO2,2.4833
mp-540256,NiPO4,1.3
mp-1244,SrGe2,0.4211999999999998
mp-656859,FePH5CO8,1.2004
mp-638374,BaNdFe2O5,0.0
mp-696221,KAl(H2N)4,0.20340000000000005
mp-865234,TaZnRu2,0.0
mp-773516,Li3NiO3,1.4144
mp-849653,Na3(CoO2)2,0.01360000000000028
mp-35388,LiSmSe2,1.6051
mp-2034,W2C,0.0
mp-770858,V5Cr(PO4)6,0.0
mp-738714,LiHCO2,5.0243
mp-783905,NaV2O4,0.9135999999999996
mp-680417,CeSb(SBr)2,0.0
mvc-5921,Mg2SnWO6,2.2892
mp-770010,LiCrB2O5,2.1903000000000006
mp-777008,LiFeF4,3.6188
mp-1034741,BaMg14SiO16,0.0
mp-541738,Cs3Cr2I9,1.1206999999999998
mp-21455,EuAlO3,0.010900000000000354
mp-637926,LaGaNi,0.0
mp-19649,Sr4MoN4O,2.2746
mp-25785,CaVNiP2O9,1.9736
mp-31418,La(SbO3)3,1.4863999999999995
mp-766806,LiMn2F9,2.2679
mvc-10012,LaCrSbO6,0.3176999999999994
mp-13748,Cs3SiF7,5.8325000000000005
mp-757571,Ba13Nb14O42,0.0
mp-765555,Li2Mn(PO4)2,0.2862
mp-775531,LiMnO2,0.9007000000000001
mp-629015,BN,3.9689
mp-764855,Na2Fe2O5,0.0
mp-775116,MnCr3(PO4)4,1.0877000000000003
mp-771643,Sr2CaI6,3.0769999999999995
mvc-16773,Li(MnS2)2,0.0
mp-979984,YbP3,0.0
mp-769611,Li4V3CrO8,1.9372
mp-13085,Mn2CoSb,0.0
mp-1022711,Mg6ZrFe,0.0
mp-8129,NiC2(SN)2,0.3355999999999999
mp-865564,Tl2CoP4(HO2)8,3.2759000000000005
mp-775539,K11Mn4O16,0.0
mp-560128,EuHSO5,0.0
mp-559889,CSNCl,2.7545
mp-23517,RbPbI3,2.4562
mp-638048,Mo9Se11,0.0
mp-763740,LiFeSiO4,2.9769
mp-9967,NdSi,0.0
mp-559706,Li3Gd(BO3)2,3.1614
mp-762985,LiMn2(CO4)2,0.4692000000000001
mp-1037887,Mg30MnBO32,0.5030000000000001
mp-561153,XeF3,2.481
mp-546679,Nd2AlNO3,1.0619999999999994
mp-766505,RbH2O2F,4.0153
mp-696683,K3SnHF8,5.1576
mp-768572,YAl3O6,4.122
mp-680401,U2Zn17,0.0
mp-778585,Li5Mn8(BO3)8,0.1867000000000001
mvc-8026,Ca3Cr6(FeO6)4,0.01100000000000012
mp-1026349,Te2W3Se4,0.23000000000000045
mp-770314,BaLaI5,2.6983
mvc-9980,MgMn2O4,0.0
mp-35493,Zn2SnO4,1.2180999999999995
mp-554623,Sm2Ta2Cl2O7,3.1249
mvc-483,BaMgTi4O8,0.0
mp-1096958,DyMn2O4,0.0
mp-23966,MgH2SeO5,3.4068
mp-771074,Li7CrO6,0.8718
mp-675858,Lu2FeS4,0.0
mp-568796,RbYbI3,3.6053
mp-14298,Zr6Ni20P13,0.0
mp-631399,OsPtCl2,0.0
mp-540302,Ni4(PO4)3,3.602
mp-1018802,MnGaGe,0.0
mp-1025079,EuAsPd,0.0
mp-505483,SmGePt,0.0
mvc-3948,Mg2Cr2O5,0.9376000000000002
mp-695927,Ca2AlH10ClO8,3.3211
mp-642234,NaEu(PO3)4,0.0
mp-3076,LaSnPt,0.0
mp-30714,Tm2Zn17,0.0
mvc-16740,Li(CoS2)2,0.0
mp-1077316,CO2,7.641300000000001
mp-29721,B3H5,3.8726
mp-1025351,Sr4Bi2O,1.4893999999999994
mp-773605,Na3Mn(BO3)2,1.4053000000000002
mp-540855,Rb6O,0.0
mp-708184,H10C5S2N2(O2F3)2,5.8112
mvc-7372,MgMo2O7,3.6859
mp-1098497,NaMg30CO32,0.4545999999999992
mp-540424,Cr(PO3)4,0.3509
mp-771222,Hg2W2O7,2.3998000000000004
mp-1095856,Ta2IrW,0.0
mp-999047,Ti2MnSi,0.0
mp-27255,Ga2TeS2,1.1978
mp-40630,CaPrMn2O6,0.07220000000000049
mp-1025172,Ho(TiGa2)2,0.0
mp-771432,V4CrCoO12,0.09199999999999964
mp-1062597,HoPd2,0.0
mp-1030743,NaMg6BO7,0.0
mp-772658,Li9Mn7V12O48,0.15759999999999996
mp-27391,Na5Zr2F13,5.5807
mp-20452,Ba(MgPb)2,0.0
mp-771212,Li3Mn(BO3)2,1.4308
mp-981545,Ho3Zr,0.0
mp-2806,YbSn,0.0
mp-756781,Sr3Li2Nb4O13,0.0
mp-605091,VSnH9(CO)3,2.5258000000000003
mp-1031359,HfMg6TiO8,0.0
mp-975821,K3Ir,0.0
mp-767295,Li3ZnPCO7,4.3098
mp-1026829,KMg14Cd,0.0
mp-976863,NaTm3,0.0
mp-566643,TmMnO3,0.0
mp-1021316,LiMg6Nb,0.0
mp-1018076,Ga2BiAs,0.0
mp-864975,Mg2PdPt,0.0
mp-676800,Ti7Ni3N10,0.0
mp-997527,La11V12O36,0.7995999999999999
mp-556468,ZnS,2.0329
mp-10866,Np(GePd)2,0.0
mp-581217,Cs2Nb4O11,2.9879
mp-1016048,CrN2,0.1477999999999997
mp-769659,Li2TiFeO4,0.0
mp-861979,Ir2S3,1.1241999999999992
mp-771435,Na3CrSiCO7,2.6464000000000003
mvc-11646,BaCo4O7,9.9999999999989e-05
mp-24308,AlSiH9C3Cl2O,5.4030000000000005
mp-30269,HfGa2Ni,0.002299999999999969
mp-722237,Be(B3H8)2,3.4994
mp-696805,H2S,4.3246
mp-971678,Na3Ni2SbO6,2.3299
mp-560402,U3O8,0.03739999999999988
mp-16544,Mg4As6Ir7,0.0
mp-764664,Mn12O5F19,0.10699999999999996
mp-1037957,SrMg30AlO32,0.4625000000000004
mp-1097353,YBiAu2,0.0
mp-21028,Er3TlC,0.0
mp-540639,FeH8C4(S2N3)2,0.5768
mp-1022216,Mg6GaFe,0.0
mp-778653,LiLa3Ti3CrO12,0.0
mp-694855,Li2MoO3,1.3572000000000006
mp-15963,HfPRu,0.0
mp-1093655,Y2CuNi,0.0
mp-773782,Li2Mn2(SiO3)3,2.6146000000000003
mp-771402,Li5FeO4,2.7818
mp-568021,Er3AlC,0.0
mp-559203,CdSeO3,3.4047
mvc-5693,MoWO6,1.5686
mp-771614,LiVO2,1.3702
mp-29922,Sb5PO10,3.1373
mp-767184,Ca5Mn4O9,2.0514
mvc-5659,SnO2,1.7606000000000002
mvc-5884,Mg(CuO2)2,0.5301999999999998
mp-865592,Y2ZnRu,0.0
mp-763573,Li5V(P2O7)2,2.6612000000000005
mp-557038,MnAs2F12,3.9706
mp-1079408,Li5In4,0.0
mp-1023252,CaMg6V,0.0
mp-685194,Li4Ti5O12,2.6703
mp-721584,B5H8NO12,0.0
mp-1094613,Mg2Ga,0.0
mp-656045,Rb2MnCl4,1.2907
mp-853229,Li2Co(SO4)2,2.9451
mp-21048,CrP,0.0
mp-989567,Cs2RbTlF6,3.7422
mp-1093603,Ba2ZnIn,0.0
mp-973465,Ho3In,0.0
mp-31887,Li3Fe(PO3)8,0.0
mp-557562,TiH8C4NO10,0.01889999999999992
mp-29629,Be3P2,0.14510000000000026
mp-981548,YErTl2,0.0
mp-36248,H4BrN,4.0509
mp-770578,GeWO4,1.4061999999999997
mp-1039462,Ca2Mg,0.0
mvc-9096,Y4Si2Sn13(SbO14)2,1.6018999999999997
mp-21113,Y(FeGe)2,0.0028000000000005802
mp-19344,Cr2NiO4,2.3040000000000003
mp-7611,Li2CaGeO4,4.1135
mp-542443,TlCr3S5,0.0
mp-24853,BaNdCo2O5,0.13560000000000014
mp-541894,Pr2Co3Ge5,0.0
mp-1094949,CeMg3,0.0
mp-557036,BaPrMn2O5,0.0
mp-611031,SrCrF6,0.02439999999999997
mp-627684,VHO3,0.3165000000000001
mp-1079585,Nb2N,0.0
mp-763510,LiFe2(CO3)3,1.6004
mp-1095614,ErAsS,0.34080000000000066
mp-769448,Li4Ti4Mn4NiO18,0.9712
mp-765995,Ba(WO3)6,0.0
mp-756768,Li3BePCO7,5.242999999999999
mp-21243,TlHg(NO2)3,0.5218
mp-978548,SmEr3,0.0
mp-31760,Sr2TaFeO6,2.2417
mp-30320,RbHfF5,6.797999999999999
mvc-6926,Mg(WO2)2,0.3282999999999996
mp-573947,Cs2MnSe2,1.2429999999999999
mp-17525,Nb5Pt3O,0.0
mp-1079790,TbSnPt,0.0
mp-561,Nb3Se4,0.0
mp-780890,LiMn2P4H11O18,4.4277
mp-765965,LiNi(PO3)4,1.0499
mp-19587,UCrO4,0.3386999999999993
mvc-6898,CaCuMo2O7,0.0
mp-662558,Ce3Sb5Pd6,0.0
mp-850412,Li7TiCr3(PO4)6,0.0
mp-556784,ZnS,2.0208
mp-849977,Mn2O3F,0.0
mp-775167,FeCu(PO4)2,0.0
mp-27094,LiSn2(PO4)3,3.394
mvc-2969,Ba2TlW2O7,0.0
mp-11084,EuCdAu,0.035699999999999836
mp-8294,Cs2Li2TiO4,4.074
mp-1095917,AlGaPd2,0.0
mp-763221,FeOF,0.8539999999999999
mp-19676,K9Ni2O7,2.1161
mp-579071,BaEu2Mn2O7,0.0
mp-864668,NdSnAu2,0.0
mp-768361,Li2Fe2S3,0.05370000000000008
mvc-4333,Y2Si3(NiO4)3,2.7573
mp-21160,Er2Cu2O5,0.5267
mp-1017367,Mg6SiW,0.0
mp-1000,BaTe,1.5930000000000002
mp-705014,Ni2P4C11S2(OF8)3,2.5554
mp-995393,LiS4,2.1585
mp-1077301,EuC2,0.0
mp-667448,SiO2,0.9566
mp-851064,Li5V3P8O29,0.3732000000000001
mp-2082,PIr2,0.0
mp-540686,CsPr(SO4)2,5.4136000000000015
mp-1018828,NpSeO,0.0
mp-775052,Li2CoCuO4,0.0
mp-756317,Al2HgO4,1.3461
mp-568269,TmNiBi,0.15039999999999942
mp-555094,PrPH5CO7,3.7298
mp-767986,Li4V2Cr3Co3O16,0.0
mp-694857,Sr3Cr2O7,0.0
mp-770487,Li3V3(BO5)2,0.4739
mp-13348,CsUCuS3,0.0
mp-570480,TcBr4,0.6025
mp-865577,Li2CdAu,0.0
mp-983407,HPd3,0.0
mp-1027106,TeMoWSeS2,0.0
mp-866032,Dy(Ni2P)2,0.0
mp-978525,Si3Mo,0.0
mp-977558,MgPaRu2,0.0
mp-568130,NdAlPt,0.0
mp-1094905,MgTi3,0.0
mp-23152,Bi,0.0
mp-1100672,Li9Mn2Co5O16,0.0
mp-574085,Dy5Sn13,0.0
mp-780618,Na2BiO3,0.0
mp-558165,SbC(Cl2O)2,2.1067
mp-555311,ZnS,2.0318000000000005
mp-754845,La3Ti2N3O4,1.3748000000000005
mp-769866,Ti2Ni3Te3O16,0.5627999999999997
mp-505515,Sr(CuSb)2,0.0
mp-27672,Nb2P5,0.0
mp-990440,Na2ZrO3,4.350999999999999
mp-16238,Li2AgSb,0.14290000000000005
mp-27184,B10(Pb2O7)3,3.259
mp-707822,H26Os2N12Cl4O9,2.4036
mp-556389,UTl2(TeO4)2,1.842
mp-865904,BeSiIr2,0.0
mp-572604,Eu2Re6S11,0.0
mp-778304,Mn3NiO8,1.1403
mp-556036,Ba3Al2Cu2F16,0.5436000000000001
mp-504908,In2TeO6,1.0047000000000006
mp-31430,Na2In,0.007400000000000073
mp-780362,La(ClO4)3,4.4896
mp-743608,Ca3YMn3B4O15,1.379
mp-22225,CeSiBO5,0.001100000000000101
mp-685320,Li20B54O,0.0
mp-553970,CsGeBiS4,2.0122
mp-27918,Sc3Si4Ni11,0.0
mp-1094598,Li3Mg,0.0
mp-24922,KCrP2O7,2.8756
mp-1018657,CaBiAu,0.0
mp-608031,NaNpCO5,0.058300000000000025
mp-866031,Al2FeIr,0.0
mp-770366,Li24Mn7Cr5O36,1.119
mp-19057,CaNiP2O7,3.907
mp-565485,Sr6Li2Cr2N8O,1.8288
mp-865252,TmSnRh2,0.0
mp-1077016,MgIn2,0.0
mp-1096103,Ca2HgPt,0.33299999999999996
mp-1040082,LiMg30WO32,3.3633999999999995
mp-566676,KMn5(SeO3)6,0.4048000000000001
mp-1029077,MoW(SeS)2,0.7818
mp-567511,H8PtCN8,1.9094
mp-762941,Li6Cr5(P2O7)4,2.2840000000000003
mp-651582,Mn(InTe2)2,0.12929999999999975
mp-677572,Na8Al11Si13(AgO16)3,2.167
mp-631373,TiVW,0.0
mp-974768,Rb2Mg,0.0
mp-707169,CuH4C3ClO2,2.5729
mp-20650,CeCrGe3,0.0014000000000002901
mvc-612,YTa(WO4)2,1.2026000000000003
mvc-6961,MgFeP2O7,4.082
mp-1028096,Mg14MnSi,0.0
mp-694538,MnPO4,0.3679000000000001
mp-625860,Sr(H8O5)2,3.4038
mp-2310,CdO2,1.2535000000000005
mp-12923,SrPIr,0.0
mp-15702,MgCN2,3.8457
mp-673092,Li4Sn(PO3)6,4.4967
mp-777424,LiFe4OF7,2.5323
mp-763890,Li2VCrP2(O4F)2,1.8744
mp-764811,Co6O7F5,0.0
mp-764637,Li3Fe8O3F13,2.254
mp-558121,K4Ba(VS4)2,1.5514
mp-558022,SrBPO5,5.3836
mp-762403,Li2Cr2SiO6,2.847
mp-977385,NpH3,0.0
mp-766248,Al11InO17,3.720999999999999
mp-614792,CsNiF3,5.3618
mp-1079276,LiAsSe2,0.6960999999999999
mp-560407,KNbSi2O7,3.431
mp-762841,Li3Mn4P3H12O19,2.5572
mp-763264,Li2FeSiO4,2.9670999999999994
mvc-10172,CaV2O4,0.002100000000000436
mp-984357,CsKO3,0.0
mp-5594,Sc2Si2O7,4.2797
mvc-6811,Mg(AgO2)2,0.0
mp-972692,SnPb,0.0
mp-5677,Tb(MnSi)2,0.0
mp-32537,Ag2W2O7,1.9576
mp-989538,Cs2InBiF6,2.2862
mp-2828,HfN,0.0
mp-27819,Ag3O,0.0
mp-761379,Li3V(PO4)2,1.7241000000000004
mp-24522,CuH2SO5,0.375
mp-11521,ScNi,0.0
mp-1027984,Mg14VZn,0.0
mp-24288,LuH2,0.0
mvc-9760,MgTi2P2O9,0.0
mp-21117,FeGe2,0.0
mp-707508,Na2H5RuN5O12,2.0897
mp-32791,Ag2S,0.0
mp-8818,Ca2ZnN2,0.7618
mp-616463,C2SN2,3.718
mp-762170,Li2NiP2O7,4.3009
mvc-13223,VO2,1.1606
mp-532384,Dy2Ti2O7,2.5119
mvc-4854,MgCrO2,1.3697
mp-961694,TiNiGe,0.0
mp-540221,LiMnP2O7,1.2485999999999997
mp-617257,WO2,1.7426000000000004
mp-700156,Eu4Mo4O11,0.0
mp-634101,HCl,2.7912
mp-543001,Zr5Sn4,0.0
mp-27892,B5H11N2,3.8593
mp-555576,KNaS2O7,5.2181000000000015
mp-1078641,SmZnNi,0.0
mp-1071777,SrAl2,0.0
mp-676498,Gd2PbS4,1.2363999999999995
mp-758324,Ti5Nb2O14,0.0
mvc-3378,Al2Sb2O7,0.1867000000000001
mp-1033739,Mg14CdCO16,1.0854
mp-37693,Nd2EuS4,0.4748999999999999
mp-15778,MgNiSb,0.0
mp-774119,CrNi3(PO4)4,0.0
mp-9473,Ba(NiP)2,0.0
mp-19753,Gd(SiPd)2,0.016300000000000203
mp-568005,CsYbBr3,4.3376
mp-1096180,LiZrPd2,0.4097999999999997
mp-764512,Li5Fe8(BO3)8,1.4401000000000002
mp-675195,Li13(Mn3As4)2,0.0
mp-762902,Li2(NiO2)3,0.3108
mp-8249,TlPS3,1.7362000000000002
mp-775455,Li4Mn2Fe3Cu3O16,0.0
mp-556438,KNaSmNbO5,3.4945
mp-1018655,CN2,2.3227
mvc-9635,Si2Ni13(SbO14)2,0.14590000000000014
mp-767533,Na2LaPCO7,4.0871
mp-867233,Sc2ZnIr,0.0
mp-28668,B9H11N4,3.0055
mp-20402,Lu6UO12,1.9482
mp-1098461,CeHfMg30O32,0.0
mp-1067210,ZrCu,0.0
mp-18290,Sr6Ga5N,0.0
mp-683600,K3Cr4PO16,2.7012
mp-565201,FeWClO4,2.2868
mp-770041,Li3VCr2O6,1.874
mp-769533,LiMn(PO3)4,1.2959999999999998
mp-1022488,NaMg6Zr,0.0
mp-769796,Li3Fe4NiO8,1.1938999999999995
mp-867917,CuGeRh2,0.0
mp-999390,NbCr3,0.0
mp-777705,Mn8O13F3,0.0
mvc-6579,Ca(CuO2)2,0.0
mp-861506,Pr2ZnRu,0.0
mp-7625,Y3ReB7,0.0
mp-560564,Ti6In2Si2P12O49,2.64
mp-570511,CdI2,2.3711
mvc-6393,VO2,0.6111
mp-1035444,RbMg14CoO16,0.0
mp-917351,Rb2CrCl4,0.0
mp-510710,Cs2AgSbS4,1.4883000000000002
mp-560675,K6Cu(SiO4)2,0.5072000000000001
mp-22545,EuGa3Co2,0.0032000000000005357
mp-1013735,Ca3Bi2,0.0