mpid,formula,gap pbe
mp-600016,SiO2,5.6503
mp-2665,PrRu2,0.0
mp-1098893,Mg30VCoO32,0.9867
mp-770123,Li9TiMn3(PO4)6,0.3246000000000002
mp-865119,NaPrHg2,0.0
mp-1095711,MgScAu2,0.19609999999999994
mp-774263,Li13Ti28O56,0.0
mp-866170,TiInRh2,0.0
mp-24076,Y(HO)3,3.7510000000000003
mp-862264,Sc2ZnTc,0.0
mp-392,U3Sb4,0.0
mp-686618,YAl6Si30(N15O)3,2.913000000000001
mp-866018,Ac2ZnGe,0.0
mp-999195,RuN,0.0
mp-1100499,Li9Mn7O16,0.8569999999999998
mp-1097519,NaSr2Li,1.1318
mp-698028,Cs2V(PO4)2,2.9685
mp-767716,LiVSi3O8,2.1659
mp-555510,Sr2YbRuO6,0.0
mp-1026455,Mg14SbMo,0.0
mp-30876,Zr3Sn,0.0
mp-505508,V2Cu2O7,0.0
mvc-10558,Be3Si3(MoO6)2,3.8074
mp-754358,ZnSeO4,1.8189
mp-1093868,YPbAu2,0.0
mp-1018147,EuPd,0.0
mp-619661,Pb3(IO)2,2.2335
mp-867807,LiYTl2,0.0
mp-697085,H2O,5.2928
mp-13123,LaGe3Rh,0.0
mp-972099,YbMg3,0.0
mp-481,ScPt3,0.0
mp-19053,LaVO3,0.02059999999999995
mp-1747,K2Te,2.1383
mp-762425,Li3Ni2(CO3)4,0.6515
mp-1028468,TeW2SeS2,0.0
mvc-6346,Ca(WO2)2,0.06059999999999999
mp-1025316,Ho2Fe2Si2C,0.0
mp-866134,VFe3,0.0
mp-1035724,KHfMg14O15,0.0
mp-1079724,Pt(NCl)2,0.36
mp-849955,Li3Mn5(FeO6)2,0.0
mp-579259,Eu3BeO5,0.0
mp-13405,Lu(MnGe)2,0.0
mp-8401,CsMgF3,6.7028
mp-12496,CsTmCdTe3,1.5519999999999996
mp-1004524,HPbI3,0.0
mp-1067933,PbS,1.6540000000000001
mp-504946,Nb2P4O15,3.2843
mp-30332,BaAgBi,0.0
mp-764902,Li4Fe2Co3Sb3O16,0.9088000000000004
mp-554930,Nb2AgPS10,1.3724999999999996
mp-622693,Mn2NiO4,0.6599999999999997
mp-6474,Ba3MgNb2O9,2.648
mp-23778,H4CN2O,5.0712
mvc-29,Ba2Mg3Tl2(CoO3)4,0.0
mp-607540,O2,0.0
mp-652282,P(W3O10)2,0.0
mp-8695,MnPSe3,0.1181000000000001
mp-626654,Al(HO)3,4.8914
mp-554527,H12C4INO3,3.9587
mp-845,Cu5Sn4,0.013099999999999673
mp-10125,SbIr,0.0
mp-987,ZnCu,0.0
mp-1026723,CeMg14Cr,0.0
mp-865782,Yb3SiO,0.0
mp-561270,SnH4C2NO4F,2.6395
mp-644015,KVHSe2O7,2.2311
mp-9776,YbAgGe,0.0
mp-757480,Ti5Pb5O14,0.4157000000000002
mp-21723,SiPbO3,3.1566
mp-571132,LiMg10AlH24,3.5822
mp-1027581,Te2Mo2SeS,0.22870000000000035
mp-1040064,LiMg30CO32,0.4935000000000001
mp-1022085,Mg6CuB,0.0
mp-1018160,PmN,0.0
mp-554947,NaSiBO4,5.4139
mp-743,RbN3,4.1736
mp-962063,LaMgTl,0.0
mvc-15707,MgSbF6,0.0
mp-1026648,Mg14SnBi,0.0
mp-1491,VB2,0.0
mvc-3223,Sr3Cr2S2O5,0.0
mp-100,Hf,0.0
mp-606604,CsLi2F3,7.0403
mvc-16255,BaAlCuWO5,0.0
mp-1080295,CeSe2,0.8099000000000001
mp-1027939,LiMg14Zr,0.0
mp-764673,Na3VO4,3.8995
mp-18960,ErVO4,2.9661
mp-1078806,FePS3,0.11910000000000046
mp-972272,TmAlAu2,0.0
mp-1097159,Zr2TcPt,0.0
mp-669496,PtI4,0.6934
mp-776924,Ti3FeSn2(PO4)6,1.3088000000000002
mp-1030190,TeMoWSe2S,0.0
mp-781598,Li3Mn4(BO3)4,0.17789999999999995
mp-1003485,Mg2Mn3O6,0.1482000000000001
mp-989178,ScOF,4.3361
mp-1028106,CaMg14Nb,0.0
mp-3546,Tb(Al2Fe)4,0.013999999999999345
mp-567852,SmCo9Si4,0.0
mp-770881,Mn2BeO4,0.0
mp-850240,Li2Mn3(SiO4)2,2.0447
mp-773186,Tb2WO6,2.9194
mp-764820,Fe2OF3,0.4536999999999998
mp-558169,NaCaAlF6,6.9056000000000015
mp-627123,Si2H2O3,1.6023999999999998
mp-972961,Sc2NiRh,0.0
mp-865319,Tm2CuRu,0.0
mp-28157,P(HO)3,7.0934
mp-574458,Zr21Re25,0.0
mp-696298,BH2CO,4.0087
mp-762160,LiNiPO4,3.0582
mp-1078664,Pr2Mn2Se2O3,1.6471000000000005
mp-764751,Mn6O7F5,0.0
mp-638686,AgNO3,2.0089
mp-626869,H2WO5,1.9137
mp-557256,RbP3PbO9,4.5591
mp-1027722,Te2Mo3W(Se2S)2,0.0
mp-570615,BaThBr6,2.1637000000000004
mp-683967,Cd7Te7Cl8O17,3.3694
mp-768972,Ba3Y2Cl12,4.5853
mp-30478,Ca2Pb,0.00480000000000036
mp-976679,HoSb3,0.0
mp-2439,ZrNi5,0.0
mp-973064,LaH3,0.4718999999999998
mp-1071422,CeAg2,0.0
mp-19290,Mn2As2O7,1.5187
mp-11615,TmMnGe,0.0
mp-1032624,Mg6FeCuO8,0.0
mp-767982,Li3Mn2(SiO4)2,0.0
mp-25613,LiNiAsO4,2.8263
mp-29605,SrPr2O4,3.3444000000000003
mp-652025,Na8Si7O18,0.0
mp-29961,Sr(C2N3)2,4.6654
mp-2983,Ba(PN2)2,3.9118
mvc-4195,Mg2TaSnO6,0.0
mp-12262,CsBeF3,6.8045
mp-569281,HoB4,0.0
mp-676597,BaVSe3,0.0
mp-1096988,GaCuBr3,0.0
mp-19611,ScZnMo3O8,0.3118999999999996
mp-600237,Ag(CO)2,0.7095
mp-542503,La9(SbO)5,0.0
mp-1040003,LaMg30BO32,1.3615000000000004
mp-9149,Er3P4Pd7,0.0
mp-1096526,CsRbI2,3.7239
mp-764147,KLiH2WO5,4.9734
mp-765245,Li7Mn4(PO4)6,0.1835
mp-571125,Ce8Ni18P11,0.0
mp-22765,Eu2Si3Pd,0.005700000000000038
mp-1025524,Zr2TlC,0.0
mp-23513,K2PtCl6,1.8478
mp-653243,Ru4C14O13,1.9679
mp-862,CaSi2,0.0
mp-1080055,NpH3,0.0
mp-1026622,RbMg14Ga,0.0
mp-13974,Ho2SeO2,2.1517000000000004
mvc-12706,Sr2MnCuSO3,0.0
mp-760230,Bi5O4F7,3.0184
mp-554883,Al(HO)3,4.9113000000000016
mp-772535,LiNb13O33,1.707
mp-555554,KGa(PO3)4,4.5523
mp-582029,GdInPt,0.0
mp-686934,LiCo(PO3)4,0.9577
mp-23743,AlH12(ClO2)3,5.3977
mp-1020654,SrBeB2O5,5.6873000000000005
mp-561072,Sr2DySbO6,3.6563
mp-761914,LiAgF4,1.0201999999999998
mp-611701,SrMnSn,0.0
mp-768766,Tb3SbO7,2.9589
mp-1095061,NbReSi,0.0
mp-19390,WO3,1.4706
mp-556775,ZnS,2.0399000000000003
mp-1609,Cr3Ir,0.0
mp-7120,Sm(AlSi)2,0.0
mp-558523,PAuClF3,3.5272
mp-770638,Li2CoH12(SO7)2,3.3284
mp-761359,V6AgO15,0.0
mp-1087537,CrPPd,0.0
mp-771114,Li3Mn(NiO2)4,0.0
mvc-619,Ba(BiO2)4,0.0
mp-1080544,GdSI,0.8945999999999998
mp-774093,Li2MnV3O8,0.0
mp-620058,PbN6,2.2802000000000007
mp-9582,Yb(ZnP)2,0.7887000000000004
mp-762183,LiFeCO4,2.2213000000000003
mvc-4554,Bi2O5,0.0
mp-37879,LiYSe2,1.5505
mp-23225,BBr3,3.8273
mp-22934,K2PtCl4,1.7942
mp-13687,Cs2KAgF6,0.6207999999999999
mvc-8730,MgBiSbO5,2.4699000000000004
mvc-1700,Ba2ZnCu3F14,0.0
mp-1077037,La2Sb,0.0
mp-15541,KNa2Si12(BO10)3,5.136
mvc-15358,Ca2NiN2,0.0
mp-505238,EuTiAgO4,0.0242
mvc-864,Sr2AlCu2NiO7,0.06240000000000024
mp-559644,K2Cu(PS3)3,1.9435
mp-772686,Ga2(WO4)3,4.2205
mp-691135,LiMn3O4,0.0
mp-721,TbCd,0.07109999999999994
mvc-4254,Mg3Ti2(Si2O7)2,0.14149999999999974
mp-541083,KPH5C2S2(NO)3,3.4045
mp-704795,U(WO4)2,0.0
mp-558007,Sm(IO3)3,3.6031
mp-532700,Sr3La21Zn2(Cu5O24)2,0.05939999999999921
mp-776703,Cr3(NiO6)2,0.011699999999999931
mp-1093636,NaCdIn2,0.0
mp-773538,CrFe3Cu2(PO4)6,0.0
mp-676864,K3Nd3I10,0.10299999999999976
mp-1061133,Ru,0.0
mp-768765,Li2Bi2B2O7,3.1397
mp-647589,La6Ge11,0.0
mp-864943,MnBe2Ir,0.0
mp-21900,Ce(SiIr)2,0.0
mp-20338,CeAl3Ni2,0.0
mp-557561,Sm6Si4S17,2.4769999999999994
mp-555078,Ba3SrSb2O9,3.1353
mp-29279,CuClF10,0.02470000000000017
mp-567736,TaPbSe2,0.0
mp-680426,Pu31Pt20,0.0
mp-978542,SmErIn2,0.0
mp-1021320,Mg6TiBi,0.0
mp-758382,Li7(CuO2)6,0.0
mp-10040,AlPt3C,0.0
mp-574,Ta2Co,0.0
mp-1018751,LaS2,0.0
mp-1944,CoP3,0.27949999999999964
mp-707494,B11H9C(Br3O2)2,0.7529
mp-4325,Zr(SO4)2,3.5633
mp-743872,VPH5NO6,2.3592
mp-752451,Zn(CuO2)2,0.6286999999999998
mp-865367,Tm2NiRu,0.0
mp-3944,ZrAlNi2,0.0
mp-1096310,LiY2Zn,0.0
mp-556859,HgO,1.1927
mp-1076198,Sr2Ca6Fe3(CoO4)5,0.0
mp-27258,P3Au2,0.0
mp-641924,Bi2PbS4,1.0821000000000005
mp-1094882,MgZr,0.0
mp-757077,Li2Cu2Si8O19,0.2105999999999999
mp-743612,NiB6(H8O9)2,4.9323
mp-769551,V9PO25,0.9107
mp-776197,Li4Ti2Fe4(CoO6)3,0.22089999999999987
mp-570974,BeCl2,6.5139999999999985
mp-1094256,Y3Sn,0.0
mp-1078989,SiRh,0.0
mp-770385,Li2Fe3BiO8,0.0
mp-607230,Ca3Ga3Rh2,0.0
mp-559141,Ba5Cu4ClF17,0.547
mp-28791,Se2NCl3,1.4143
mp-769730,Li4V2Cr3Ni3O16,0.0
mp-1073934,Mg6Si5,0.0
mp-567191,CaAlSi,0.0
mp-22848,Cl2,2.5434
mp-674516,Ca3Zr17O37,0.0
mp-864597,LiMgTl2,0.0
mp-566697,KCa9Mn(PO4)7,4.5046
mp-766866,Li4Mn5O9F,0.9698000000000002
mp-1078643,RbNa3H4,2.5509
mp-1270,Dy2S3,0.5937999999999999
mp-6602,SrCu2(BO3)2,0.0
mp-977123,NaTiO3,0.0
mp-779941,CrO3,1.5649000000000002
mp-570738,GaI2,2.3766
mp-680377,Rb12Sn8GeO4,1.1014
mp-567808,Tm(CuGe)2,0.0
mp-22924,NaBi,0.0
mp-1028704,TeW2Se2S,0.0
mp-30421,Sr3Au2,0.0
mp-2449,NbRh3,0.0
mp-976260,LiTm2Au,0.0
mp-554741,KErP2S7,2.6558
mp-1020656,RbY(PO3)4,5.4849
mp-1021467,KMg6B,0.0
mp-540381,LiCrPO4,2.7463
mp-764871,V2Fe3Te(PO4)6,0.0
mp-861995,PaNi2Sn,0.0
mp-704185,Fe4(PO4)3,0.5861999999999998
mp-542012,Rb4Hf3S14,1.9401
mp-979965,YbSmPt2,0.0
mp-6101,Ba3Nb6(Si2O13)2,2.281
mp-767688,NaNdPCO7,0.18589999999999995
mp-773288,Li3Fe2CuO6,0.6053000000000001
mp-1094605,LiMg2,0.0
mp-27848,TiIN,0.0
mp-984534,Dy2OsPd,0.0
mp-1025373,TcF6,0.0
mp-5807,Mn(SbS2)2,0.0
mp-605809,Ba11In6O3,0.0
mp-7680,K2CaCu(NO2)6,0.3385
mp-25518,FePO4F,0.0
mp-505001,Rb3ZnBr5,3.8414
mp-975336,KCSN,4.2439
mp-14235,SrGa2(SiO4)2,3.9542
mp-581877,Cs2Zr(Si2O5)3,4.946899999999999
mp-773763,Li4Cr3Fe2Sb3O16,0.7389000000000001
mp-849073,Cr5S6,0.0
mp-1023632,Mg15Fe,0.0
mp-773397,GeWO4,2.4469
mp-754971,Cs3TmO3,2.267
mp-601661,FePH5CO4,3.6053
mp-555347,Sr2CoO4,0.0
mp-17667,Sr3AlSb3,0.5371000000000006
mp-770136,Li4MnV(PO4)3,1.8184
mp-1025583,Te2Mo(WSe2)2,0.0
mp-1026388,Mg14TiCd,0.0
mp-561079,CdBiS2Br,1.95
mp-677416,Na5Mg5In3(SO4)12,3.695
mvc-10623,BaZnWF7,3.1929
mp-4309,BaGa4S7,2.5800000000000005
mp-1021965,Mg6VNi,0.0
mvc-8814,Ti2Zn(PO4)3,0.16310000000000002
mp-779241,LiCu5(PO4)2,0.08659999999999979
mp-562366,Cs2U3(TeO7)2,1.8529
mp-1098657,Mg30AlCrO32,0.0
mp-976925,Na(Mg4Al3)4,0.0
mp-1079324,Cr3AsC,0.0
mp-757106,LiSnPO4,2.6617
mp-767656,Nb4VO12,1.8576
mp-542464,Ga2H6(SeO4)3,3.9647
mp-23959,KP(HO2)2,5.752999999999999
mp-849938,Ta2CrNO5,1.4756000000000005
mp-759290,Li3Bi2(PO4)3,3.5627000000000004
mp-554189,KV3P4O17,1.1557
mp-687212,Cr(PO3)4,0.002500000000000057
mp-23415,TlFeI3,0.10319999999999974
mp-779363,Cr4OF11,0.9148
mp-9209,In2(SO4)3,3.6946
mp-1096484,CsK2As,0.02430000000000021
mp-556392,ZnS,2.0362
mp-759449,Li3Ag2F5,1.5188
mp-626464,PH3O4,5.642200000000001
mp-763156,Li4V2Co3Cu3O16,0.0
mp-721011,Pr20AlSi19N33Cl2O19,2.8389999999999995
mp-1096022,LiTiAu2,0.20009999999999994
mp-769577,Li2VCr3O8,0.8100999999999998
mp-556377,Ba17Dy16Zn8Pt4O57,2.2995
mp-972557,SmAg3,0.0
mvc-16797,Y(FeO2)2,1.8529000000000004
mp-768483,Lu3Sb5O12,3.1058000000000003
mp-1008630,WC,0.0
mp-763019,LiMnF3,3.0923
mp-1031131,LiMg6SbO8,0.0
mp-776255,Li5SbS4,0.8237000000000001
mp-1020591,Rb8NO3,0.0
mp-21625,Y2(Ga3Co)3,0.0
mp-1040469,KMoO3,0.0
mp-566785,Fe3BO5,1.0194999999999994
mp-554627,Cu6PS5Br,0.8183999999999996
mp-706277,Li10Si(PSe6)2,1.3277
mp-758693,Na4Al4H10O13,4.3167
mp-669320,Ba5Si3,0.0
mp-556,ZrNi,0.0
mp-1077485,HoSnGe,0.0
mp-558931,SiO2,4.5368
mp-541649,Na2W(OF2)2,4.2853
mp-14589,Hf2Si4Ni3,0.0
mp-1063755,BiSe,0.0
mp-4900,BaCeO3,2.2279
mp-697804,CsUCrO6,1.6103999999999998
mp-20382,Ti6Sn5,0.0
mp-579536,CsCu2ICl2,2.017
mvc-274,Sr2Cu2TeO7,0.0
mp-21425,UNiSn,0.013399999999998968
mp-1017342,CsNaMg6,0.0
mp-23467,CsSn2Br5,2.4489
mp-1021490,Sn4SF6,2.7125
mp-1038860,Ce2Mg,0.0
mp-762424,LiNi(CO3)2,0.1916
mp-558568,Rb2CdSiO4,2.4876
mp-541361,K2RuNCl5O,1.7696999999999998
mp-1078409,Ba2LaBiO6,2.2033
mp-557764,Sr2Ni(PO4)2,3.9939
mp-18789,TlCo(CO)4,3.0826
mp-534935,Sr3Pr10Al12Si18(N2O)18,3.0028000000000006
mp-1013726,Cd4SF6,1.8553
mp-6652,KZn4(BO3)3,2.8165
mp-549590,RbClO2,2.3707000000000003
mp-1074489,Mg4Si3,0.0
mp-14587,ZnP4,0.9662999999999996
mp-1787,NdMg3,0.0
mp-763774,Li2Nb6NiO18,1.2195
mp-690472,Na3(WO3)4,0.0
mp-765773,V3O5F3,0.8623000000000001
mp-3324,Nb2SnO6,1.7399
mp-12117,PrS2,0.0
mp-9745,Ba3NaRuO6,0.6731999999999996
mp-704327,Mn7(PbO5)3,0.05069999999999997
mp-1070646,Dy2AlNi2,0.0
mp-641743,Yb11(Sm2Se11)2,0.0
mp-31119,TbScO3,4.436
mp-863710,KAcTe2,1.1136999999999997
mp-1071822,SnO2,0.6519000000000004
mp-28129,Ba(SbS2)2,1.5471
mp-950,NaZn13,0.0
mp-761301,VIO4,1.0608
mp-622624,Rb2Cr2As2O9,2.1846
mp-1097221,Y2MgHg,0.07960000000000013
mp-758743,Li2CuSiO4,0.0
mp-862871,PbCl2,3.0963
mp-19308,Li2NiO2,3.71
mp-761299,Li2CoBO4,1.4304
mp-1068235,SrGe3Ir,0.0
mp-1038227,LiMg30AlO32,4.7286
mp-4511,La2SO2,3.0609
mp-991078,CeCo5,0.0
mp-764961,Li6Co(SiO4)2,2.6850000000000005
mp-20203,MnCuP,0.022500000000000853
mp-1016596,Mg6NbGa,0.0
mp-1040199,KMg30CO32,0.5347
mp-569916,Al3Pt2,0.0
mp-977250,Pm5Mg,0.0
mp-680446,Cu3P4Se4Br3,1.2863000000000002
mp-865140,MnGaRu2,0.0
mp-776448,BaNb3NO7,0.8202999999999998
mp-766267,Y7TmO12,4.062
mp-761599,Li4MnP2O9,1.4716000000000002
mp-11124,CsLaHgSe3,1.6804
mp-743681,Sr5La2Mn8(O3F)6,0.0
mp-1027861,CsMg14Zr,0.0
mp-703836,K4ZnH6(S2O9)2,0.4794
mp-1025249,Sm2Re2Si2C,0.0
mvc-10211,Zn(NiO2)2,0.0
mp-757457,LaNb3O9,1.6303
mp-1002220,TmSb,0.0
mp-21064,EuNi2B2C,0.0
mp-505222,CdInBr3,2.2185
mp-554084,BaBi6(PO5)4,3.4275999999999995
mp-705262,Li2Mn3(P2O7)2,3.4753
mp-1038,MgCu2,0.0
mp-995200,HC3,0.0
mp-510040,Zr2Ni2Sn,0.0
mp-763837,Na2SrLiVP2O9,1.7614999999999998
mp-25779,Ni3H2Se3O10,3.0794
mp-1098932,Mg30CdNiO32,3.777
mp-1096357,TaMn2Ga,0.0
mp-651461,Co8C24(SO7)3,1.4797
mvc-6160,Ca(FeO2)2,1.7102999999999997
mp-19199,BaSm2NiO5,2.1603000000000003
mp-1032324,BaMg6CuO8,0.0
mp-551,BaAl2,0.0
mp-15326,Sm3IrO7,0.0
mp-542294,Sr3NiRhO6,0.05430000000000002
mp-865148,PaAlTc2,0.0
mp-28753,NdI2,0.3182999999999998
mp-757883,LiSiBiO4,2.9488000000000003
mp-7425,TbPt,0.0
mp-540146,MnPO4,1.089
mvc-10629,BaCaWF7,3.9033
mp-654374,Ba2YTlCu2O7,0.0
mp-1025550,Ti2GaN,0.0
mp-1079783,EuAl,0.0
mp-600208,ZrH36C16(NO4)4,3.7627
mp-863856,Li3Cr3FeO8,0.8941999999999997
mp-20617,Th3Si2,0.0
mp-1095884,LiTaOs2,0.2585000000000002
mp-631555,MnVNi,0.0
mp-1078638,Ca,0.0
mp-1038437,Mg30BiCO32,0.6960999999999995
mp-766728,LiV(SiO3)2,2.1655
mp-756477,LiTeHO4,1.6134
mp-774013,Li3V6Fe4(CuO12)2,0.021399999999999864
mp-1097378,HfScHg2,0.0
mp-762547,LiFe4(PO4)3,3.222
mp-21256,Mn7C3,0.0
mp-35527,Zr7(NO2)4,2.6082
mp-768326,Na4Sn2C4SO16,1.1476
mp-1024987,HoCu4Ag,0.0
mp-559272,K3Sb7(SO3)3,1.834
mp-558239,Rb4U5O17,1.517
mp-4043,NbCu3Se4,1.3604000000000005
mp-19227,YMnO3,0.0
mp-761456,Li2FeP2O7,4.164999999999999
mp-569398,La4Al5Br2,0.0
mvc-7890,ZnCrBiO5,0.7590000000000003
mp-763620,LiCo2C2O7,1.19
mp-1079560,Nb2CrB2,0.0
mp-721876,AlP2H5O9,5.5286
mp-695422,CdGePH3O7,0.06590000000000007
mp-13027,YbZnAu,0.0
mp-973689,Ho3Lu,0.0
mp-2008,FeAs2,0.2801999999999998
mp-631323,HgOsPb2,0.0
mp-1019362,ThBiTe,0.0
mp-17244,Ba2ZnGe2S6O,2.0929
mp-6450,K2LiAlP2,2.0322
mp-1077929,La2CuO4,0.0
mp-18804,BaDyCo4O7,0.19240000000000013
mp-851281,Li3Mn2(PO4)3,0.5818999999999999
mp-774714,Li3Sb(PO4)2,3.1539
mp-1016880,ZnRhO3,0.0
mp-9127,Ba(SbO3)2,2.8606
mp-560791,CsNaTiO3,3.3618
mp-21459,InAgS2,0.5082
mp-763433,Li2MnF4,3.7437
mp-1087471,FeCu2GeSe4,0.0
mp-1389,PuAl3,0.002399999999999736
mp-762476,LiMn3Al2(HO2)6,0.2645999999999997
mp-30483,CaZn,0.0
mp-769710,Li3Fe2P2(CO7)2,0.0
mp-849092,NiS2,0.0
mp-1029418,KSi2N3,3.7106
mp-541594,Sc8Te3,0.0
mp-769608,Li4VCr3O8,1.9311
mp-673134,LiSn2P3O10,2.898
mp-7947,PtO,0.0
mp-767045,Li2MnO2F,2.1464
mp-1075372,Mg5Si6,0.0
mp-1080005,Cs3Li2Br5,4.209
mp-1093573,Zr2ReIr,0.14250000000000007
mp-765758,Li3MnFe3O8,1.4032
mp-763742,Li2FePO4F,3.7155
mp-20387,EuSn3,0.10570000000000056
mp-1038168,Mg30MnVO32,0.9665999999999996
mp-555005,Na3Mg2P5O16,4.8098
mp-1026507,Mg14CrMo,0.0
mp-579517,Li9Cr3P8O29,3.0837000000000003
mp-764,CeCo5,0.012199999999999987
mp-4189,Dy6FeSb2,0.0
mp-585354,LiCr2P3O10,2.5486
mp-631303,InReGe,0.0
mp-8145,RbScO2,3.3213
mp-30953,GaBr3,3.3473
mp-540306,Li3Ni3(PO4)4,0.010600000000000165
mp-673059,LiSbP2O7,3.933
mp-698191,NaCaB5H16O17,2.9061
mp-775090,Li4Nb2V3Co3O16,1.4670999999999998
mp-9781,K3SbS4,2.1699
mp-680680,Sr4Ru3O10,0.0
mp-554022,Sn2P2O7,3.5193000000000003
mp-561235,AsCSF11,4.5943
mp-1080603,Fe7Co,0.0
mp-556886,Li4Al3Ge3ClO12,4.2892
mp-1075600,Mg5Si9,0.0
mp-505513,Nd(Re2Si)2,0.0
mp-640564,AgSbC6N4(OF3)2,1.4559
mp-1022463,Mg6ZrGa,0.0
mp-1033343,HfMg6CrO8,0.0
mp-774368,Li6Mn5Fe(BO3)6,2.6076
mp-570272,Tb2Mg3Ni2,0.0
mp-1020578,Sr4S3O,2.1146000000000003
mp-997163,MnAuO2,0.0
mp-720995,Sr2C2N3,0.0
mp-31101,Gd3ReO7,0.0
mp-1096247,Ba2BiI,0.6684999999999999
mp-983236,Pm2ZnOs,0.0
mp-1027836,KMg14Cu,0.0
mp-704753,Hg2Mo2O7,2.2785
mp-780234,Hf2N2O,2.1500000000000004
mp-540364,Li3Cr2P5O18,0.05979999999999985
mp-2673,YbPb,0.0
mp-4242,U3(CuGe)4,0.001300000000000523
mp-17662,Lu2PdO4,0.5854000000000004
mp-29677,Ho3AlC,0.0
mp-755350,BaLaI5,2.3535000000000004
mp-7704,Ca(AlSi)2,0.0
mp-1026760,NaLaMg14,0.0
mp-1077744,SmCuPb,0.0
mp-652318,CrFe2C10(Se2O5)2,1.5163
mp-683953,SiO2,1.4904000000000002
mp-1079768,Ti2HPd,0.0
mp-974843,Rb3Os,0.0
mp-18540,CsEr2Cu3S5,1.5296000000000003
mp-23183,NdCl3,4.299799999999999
mvc-7086,Cr(SiO3)2,1.6727999999999998
mp-9418,Eu(CuO2)2,0.0
mp-504653,Eu2SiO4,0.3787999999999992
mp-505334,Dy2Mn3Si5,0.0
mp-566135,NiB4O7,3.3555
mp-631467,BeInSi2,0.0
mp-997100,SrAgO2,0.0
mp-867179,SrCdHg2,0.0
mp-13939,Sr2ErReO6,0.0
mp-16921,KNa4GeAs3,0.8463999999999998
mp-553914,KCdCu7Se2Cl9O8,0.0
mp-14500,Sr(As3Pt2)2,0.1305000000000005
mp-11550,Sc2Pt,0.0
mp-13922,Ba2Ge,0.0007999999999999119
mp-1097447,LiBe2Rh,0.5581999999999998
mp-1073992,Mg6Si5,0.0
mp-28491,Cu2SO4,1.5322
mp-771879,Sr2LaCl7,4.2449
mp-19956,Ba2InO3F,2.0466999999999995
mp-673667,TiO,0.0
mp-863709,Ir3Rh,0.0
mp-771633,Li3Mn(PO4)2,0.2830000000000004
mp-1022081,Mg6CoC,0.0
mp-22619,NiP2,0.0
mp-775392,Li2Ti3MnO8,1.7513000000000003
mp-1098933,Mg30CdNiO32,3.3681
mp-504701,CsTiF4,0.06449999999999978
mp-999079,Ti2AlCu,0.0
mp-31658,Cr4(PO4)3,0.0
mp-1026906,LaCeMg14,0.0
mp-672262,La3Zn3Ge2SbO14,2.9454
mp-30051,Si3CCl7,4.0202
mp-763247,LiVSiO5,1.7594999999999998
mp-1037532,Mg30NbFeO32,0.5569000000000006
mp-30435,BaZn2,0.007600000000000051
mp-1025925,Mo3(SeS2)2,0.6036999999999999
mp-775551,Li4Ti3Mn4(FeO9)2,0.7115
mp-11352,PrAl5Ni2,0.0
mp-772384,LiNbCoO4,2.263100000000001
mp-644324,K2FeH4(SO5)2,4.3219
mp-775694,Li4Cr3Ni2Sn3O16,0.8386
mp-27240,UCl5,0.3309
mp-1016229,Mg3Ni,0.0
mp-772609,La2Zn2O5,1.5065
mp-1093997,Zn2Ga2S5,0.7654000000000001
mp-1032744,YMg6CuO8,0.0
mp-622135,V2Ni2O7,2.6661
mp-1096819,Sr2Mn2O5,0.0
mp-761963,Li4NbCo5O12,0.0
mp-1095769,CaLaTl2,0.0
mp-767483,VPO5,1.7964
mp-763304,Li2CoSiO4,2.9942
mp-20316,PPbSe3,1.6562999999999994
mp-861484,LiMnPO4,3.4985000000000004
mp-767026,Li8MnO5F,1.975
mp-569116,Sc2B6Rh,0.0
mp-1001159,MnFe2Si,0.0
mp-6434,RbAlSiO4,4.3806
mp-554370,TiSCl6O,2.6221
mp-554187,SnH21C7S4N(O3F)2,4.7629
mp-1079278,Sr(AlAu)2,0.0
mp-985577,AlFe,0.0
mp-755619,Sn2P2O7,2.7152
mp-773413,Na5LiMn2P2(CO7)2,3.3259
mp-985593,NaAg(CO2)2,2.5394
mp-2170,Li2Pt,0.0
mp-561182,Ba4Tl2Cu2HgO10,0.0
mp-768146,Na2AlPCO7,5.0719
mp-743548,KCr2H(CO)10,0.7538
mp-29014,P2S3,2.4837
mp-761827,Na3CuO3,1.1698
mvc-13927,SnN,0.0
mp-772428,LiV(SO4)3,1.2947
mp-865192,EuAg2Sn,0.0
mp-754075,LiHfPCO7,4.8514
mp-781596,LiFeOF2,1.7427
mp-30260,Zr8Ni21,0.007600000000000051
mp-1096270,Y2AlPb,0.0
mp-3582,Mg(BC)2,1.0168999999999997
mp-771573,Li2V2Sn(PO4)3,0.2662
mp-505632,CsFeS2,0.0
mp-1039383,CaMg3,0.0
mvc-11636,Y(NiO2)2,0.0
mp-766964,Li2Fe2SiO6,2.4928
mp-1074405,Mg4Si3,0.0
mp-570186,Ga2Te2Br7,1.2944
mp-973572,La2TlHg,0.0
mp-861500,PrB2HF10,7.8433
mp-30972,Na2Sb4O7,3.1069000000000004
mp-975924,Ge3Ir2Se3,0.5894000000000004
mp-776746,Li8Fe7Sb(PO4)12,0.0
mp-5048,LiGaTe2,1.5885000000000002
mvc-664,YRe(WO4)2,0.7616000000000005
mp-853146,Li4VCr3O8,1.8358000000000003
mp-14023,Na3Li3Sc2F12,6.8685
mp-541995,LaSiO3F,4.686699999999999
mp-772424,RbLi2V2(BO3)3,2.4291
mp-1076892,BaSr7Fe7CoO20,0.0
mp-554755,SiO2,5.6152
mp-765073,Li2MnO2F,2.2011000000000003
mp-31585,LiCoPO4,3.0561000000000003
mp-17088,KBaPS4,2.3898
mp-605166,KDyH2C2SO9,3.1224
mp-28630,Na3BN2,1.6479
mp-569960,ZnBr2,3.2848
mp-1648,Al12Re,0.0
mp-781740,Li2V3CrO8,0.6137000000000001
mp-4385,CdCO3,2.6226000000000003
mp-19479,Na5La(MoO4)4,4.0741000000000005
mp-781060,Mn2OF3,0.0
mp-10120,NdBPd3,0.0
mp-569339,Cu10Sn3,0.0
mp-1673,Tb5Ge4,0.0
mp-866296,AlCuPd2,0.0
mp-754823,ErTlO2,1.3714999999999995
mp-1022730,YFe2Bi2(SeO2)2,0.0
mp-1035772,Mg14ZnCrO16,0.13649999999999984
mp-976949,Lu3In,0.0
mp-2045,Tb4Sb3,0.0
mp-1034997,Mg14NiSnO16,0.0
mp-977574,HoSbPd2,0.0
mp-767968,Na3Ni2P2(CO7)2,0.0
mp-861128,Li6Mn5CoO12,0.7322000000000002
mp-21730,Cu4P2O9,0.009300000000000086
mp-7648,SiO2,5.3774000000000015
mp-1018850,OsC2,0.04699999999999882
mvc-5780,Mg2FeIrO6,0.0
mp-23417,InSn2I5,1.4292000000000002
mp-3787,RbFe2S3,0.0
mp-754354,Ba4OF6,3.6156
mp-16770,Ca2Ag7,0.0
mp-1057000,ReC,0.0
mp-1074066,Mg9Si5,0.0
mp-561903,Sr2MnClO3,0.0
mp-555979,Li2Pr(NO3)5,3.6557
mp-1094140,MnGe2,0.0
mp-1026607,BaMg14Mo,0.0
mp-761675,Li2Cr3CoO8,0.5895999999999999
mp-1272,Cr3Ru,0.0
mp-11427,GdPd,0.004499999999999282
mp-1099040,CaMg14CoO16,2.2578000000000005
mp-1080767,Eu(BiPd)2,0.0
mp-1016298,Mg7V,0.0
mp-17924,ZnP2PbO7,4.2572
mp-17164,NaNbGeO5,3.0775
mp-1039421,Ca2Mg,0.0
mp-555077,Sn2IF3,2.3751
mp-753123,Li2CuF4,0.254
mp-673247,Y2O3,0.0
mp-554166,V3ZnO8,1.933
mp-1080116,SmCuSb2,0.0
mp-764946,Li3Mn2(CO3)4,0.5701999999999999
mp-1074475,Mg4Si3,0.0
mp-761414,Al19CrO30,3.9272
mp-1096814,Al2ZnS4,0.4131999999999998
mp-553922,K2Mo15S19,0.0
mp-768878,CuReO4,0.9999999999999998