mpid,formula,gap pbe
mp-675942,AgClO2,0.0
mp-849707,NaV4O10,0.0
mp-615850,Pb2Se(NO4)2,2.4677
mp-24083,Th2AlH4,0.0
mp-764260,Na9Mn21O40,0.0
mvc-15230,MgV2O6,0.0
mp-19248,BaSm2CoO5,0.27390000000000025
mp-555812,NaSr3BiO6,1.7251000000000003
mp-562133,Rb2Cr2O7,2.7024
mp-567332,Ce,0.0
mp-1035030,NaLaMg14O16,3.3085
mp-983587,Ac2NiGe,0.0
mp-762918,Li2Cr2CoO6,0.5604
mp-772296,ZnCrO4,2.1911
mp-1100022,BaSr7Fe7CoO20,0.0
mp-1651,Th2Al,0.0
mp-770383,Li2Cr2(SO4)3,2.2954
mp-5157,Ca(PRu)2,0.0
mp-744192,CoH12(BrO6)2,3.2087000000000003
mp-1033208,Mg6CdCO8,0.3102999999999998
mp-998350,BaZrSe3,0.2012999999999998
mp-644486,KAlH4,4.8048
mp-569754,Ba7Sn3Se13,1.4091999999999998
mp-773542,Li3V(PO4)2,2.6842
mp-766262,H20C3(N2O5)2,4.7037
mp-10601,Y3GaC,0.0
mp-619,UB4,0.0
mp-1028196,RbCaMg14,0.0
mvc-1149,Ba2AlW3O8,0.0
mp-30248,LiMoS2,1.0286999999999995
mvc-13426,Ca(CuN)2,0.0
mp-14578,Cs4Ta2S11,1.8065
mvc-6969,VZnP2O7,1.6704
mp-764207,Li4Fe3CoO8,1.7590999999999997
mp-13743,K3GaO3,2.8365
mp-1097627,ScHgAu2,0.2279
mp-21102,Yb2AlB6,0.0
mvc-9222,MgTiP3WO12,0.8754999999999997
mp-559916,Na17Al5O16,2.4421
mp-8652,SF6,5.8901
mp-780861,Fe4O7F,0.0
mp-771599,Li3FePCO7,4.0108
mp-752695,SrCa2I6,3.6748
mp-554506,K3In3(PO4)4,3.4717
mp-1095688,YNiSn,0.0
mp-975382,RbCaO3,0.0
mp-600052,SiO2,5.4991
mp-3927,CaAsAu,0.0
mp-568553,TlFeBr3,0.0
mp-1024963,TbCo2B2C,0.0
mp-754717,RbBrO4,3.0694
mp-621131,Ti3Ag,0.0
mp-744755,LiV5H18N2O19,2.4621
mp-1035975,YMg14SnO16,0.1501999999999999
mp-769773,Li3CrClO4,2.6207000000000003
mp-30526,Mn4Al19,0.0
mp-567011,SrFeP(O2F)2,2.1976
mp-6227,Ca2ZnSi2O7,4.3321
mp-752429,ScTlO3,0.9279999999999996
mp-867244,LiGdAu2,0.0