mpid,formula,gap pbe
mp-990448,C,0.2614
mp-776150,ScAgO3,0.3578999999999999
mp-1100744,Li9Mn2Co5O16,0.0
mp-21486,Tm2In,0.0
mp-560965,K4Mn(AsS4)2,1.0475
mp-763819,Li4Mn7(OF7)2,1.7582000000000002
mvc-16055,Sr4CaMn2(SO3)2,0.0
mp-1080168,MoW(SeS)2,1.3121
mp-770341,Li4AlCr3O8,3.0815999999999995
mp-7084,SrCaSi,0.4237000000000002
mp-23307,NbCl5,2.2235
mp-582134,Y3Ni2,0.0
mp-1027303,TeMoWS3,0.0
mp-6289,Ba2Ti(GeO4)2,3.7129
mp-1027139,MoWSe3S,0.7308000000000003
mp-1006115,Ho3Pu,0.0
mp-755313,Sc2O3,4.127599999999998
mp-24694,Zn(H2N)2,2.3711
mp-690725,TlCuHSO5,0.3320000000000003
mp-21484,PuGe3,0.05769999999999964
mp-703305,Na2PHO4,4.7475000000000005
mp-1098909,Mg30NbCoO32,0.3244000000000007
mp-683952,SiO2,1.3132
mp-1029602,Sc2(CN2)3,3.2601
mp-31030,KHo2F7,6.916099999999999
mp-19761,LaGe2,0.010899999999999466
mp-698476,H2C3(N2Cl)2,3.6838
mvc-15954,Re2O7,0.0
mp-623382,BaFe2(P2O7)2,2.3725
mp-773145,Li2Cr4O13,1.3539000000000003
mp-865660,Yb2AgPt,0.0
mp-30336,Al4W,0.02700000000000013
mp-629690,Bi2(PbS2)3,0.5274999999999999
mp-764697,Li3VOF5,2.9884000000000004
mp-21167,Ni2P,0.0
mp-1075610,Mg5Si9,0.0
mp-765161,LiVFe(P2O7)2,1.5996
mp-762968,Li5V3P8O29,0.7694
mp-762860,LiCoSiO4,0.7364999999999999
mvc-14991,SrCuSO,0.0
mp-722571,ReH(CO)4,2.9087
mvc-10399,HoZn(WO3)2,0.9379
mp-775959,LiLa7(CuO7)2,0.03699999999999992
mp-28884,Cs(FeAs)2,0.0
mp-1035614,KMg14GaO16,1.8608
mp-1078939,MnNF3,0.0
mp-32881,Si3O,0.1637000000000004
mp-4299,HoInPd,0.0
mp-19516,Al2(WO4)3,4.5569
mp-758770,Li2Mg3Ti6O16,3.3131
mp-765331,LiMn2O3F,0.0
mp-570816,Ho5Ga3,0.0
mp-31053,Ag2S,1.3608000000000002
mp-989514,Cs2NaSbCl6,3.0473
mp-11121,CsTbCdSe3,2.0647
mp-763891,Li2Mn3F8,2.8732
mp-777292,Ba3Y2Br12,3.7768
mp-1091396,Pr(AlAu)2,0.0
mp-770878,Li4Cr3Co5O16,0.041300000000000114
mp-7904,CdP4,0.7775999999999996
mp-571122,FeI2,0.0
mp-19325,BaY2NiO5,2.2417
mp-27765,W3Br8,0.0
mp-781904,Cu6OF11,0.0
mp-778619,Na4Co2O5,0.9819
mp-32711,SrBr2,4.299799999999999
mp-1075001,Mg3Si4,0.0
mp-579243,Li2U5MoO19,1.5605000000000002
mp-554549,CaGeO3,2.5121
mp-505627,Nb3Co2Si,0.0
mp-19622,Ba3MnSb2O9,2.0124000000000004
mp-561262,NaSrCrF6,3.9974
mp-1094100,Nb4CoS8,0.0
mp-1074455,Mg4Si3,0.0
mvc-12639,Mg(FeO2)4,0.0
mp-565192,CuBi(WO4)2,1.2861000000000002
mp-542794,Fe7S8,0.0050000000000007825
mp-559637,Dy(IO3)3,3.4306
mp-9981,Mn2N,0.0
mp-1095028,Zn3CrSe4,0.0
mp-1095953,Zn2PtAu,0.0
mp-1020002,NaEuGeO4,0.0
mp-610738,Zr(InBr3)2,2.3857
mp-555321,BaNiF4,4.6572
mp-552729,KIO3,2.5682
mvc-10324,CaBi3P3O13,2.869
mp-556018,LiBH15C5NO3,4.0223
mp-1094022,Zn(GaS2)2,0.3178000000000001
mp-504934,Sc2CI3,0.5682999999999998
mp-849475,VO2F,1.7911
mp-11631,Dy2Al6Si4Au,0.0
mp-721314,NaH2SO4,5.3052
mp-29880,Sm2SCl4,3.5037
mp-686087,Li3(Nb2Cl5)8,0.023499999999999854
mp-18310,Si3Ag3(SnP3)2,0.2951000000000006
mp-11115,RbCuPdSe5,0.9872
mp-998627,NaMoO3,0.0
mp-775929,La2Nb2N2O5,1.4554999999999998
mp-1070135,Er2Mg2Ru,0.0
mp-867561,Li2Cu2F7,0.0
mp-1008867,NaCuO,0.0
mp-982871,Na3Pt,0.0
mp-637436,Tm10In20Co9,0.0
mp-1097424,YZn2Ag,0.3994999999999997
mp-1078167,PrIn5Co,0.0
mp-556989,ZnS,2.0305
mp-1078903,SrZnSbF,0.0
mp-1079623,TaMnSi,0.0
mvc-3999,Ca2Mo2O5,1.3222999999999994
mp-29531,CsBi3S5,1.4278999999999995
mp-1033978,KRbMg14O15,1.0375999999999994
mp-1058581,Ba,0.0
mp-768127,NaSnPCO7,2.5546
mp-684090,LiSbP2O7,3.6516
mp-19695,LiGa(WO4)2,3.4506
mp-1019533,Ba9Y2(SiO4)6,4.5047
mvc-13934,FeN,0.0
mp-510642,CuNi2(PO4)2,0.8935
mp-11287,CaHg2,0.0
mp-1029978,KRuN2,0.0
mp-567072,NaV6O11,0.8658999999999999
mp-863862,Na9Cr2(H9O7)3,3.3093
mp-775619,Na2NiPCO7,0.048599999999999983
mp-765536,LiNi2O2F,2.2543999999999995
mp-1039347,SnBi3,0.0
mp-755880,WN2,0.13649999999999984
mp-777133,V3CuO8,0.0
mp-585414,Co2P3O10,0.516
mp-1080236,TeMoWSe2S,0.2776000000000001
mvc-8854,TiZnAg(PO4)3,0.0
mp-7130,ScRu3C,0.0
mp-770048,K3VPCO7,2.3245
mp-779192,LiCoSiO4,1.3233
mp-772600,Cd(FeO2)2,1.7144000000000004
mp-27724,BPS4,2.2625
mp-1026405,HfMg14Ga,0.0
mp-1096783,Ba2VFeO6,0.6584999999999996
mp-1078185,Ba2LuSbO6,3.2325
mp-765078,LiVCrP2(HO5)2,1.406
mp-554032,Ti3O,0.0
mp-680136,Cd13(In13Se27)2,0.000500000000000167
mp-974850,Rb3Nd,0.0
mp-557792,HfSCl6O,3.2525
mp-981366,Zn3N,0.0
mp-1098651,Mg30NbAlO32,0.0
mp-775185,LiVSiO4,2.4649
mp-29087,Ba2(SnSb2)3,0.0
mp-1094757,MgCd2,0.0
mp-29365,Li5BiO5,1.3597
mp-1096825,B6Pb,0.9208999999999996
mp-21890,NdCoSi,0.0
mp-675137,Cu4Sn7S16,0.0
mp-3190,Er(FeB)2,0.0
mp-685352,Ca2NF,1.1674000000000002
mp-775640,Li4Ni5Te(PO4)6,2.9442000000000004
mvc-8853,MgTaTi(PO4)3,0.0
mp-1064244,Sc,0.0
mp-1078630,Ba2ThCu2S5,1.0797000000000008
mp-505186,Cs4Pr6C2I13,0.2948999999999993
mp-696650,KH2Au(Cl2O)2,0.5065
mp-555700,SiO2,5.484
mp-1035899,YMg14NbO16,0.06460000000000042
mp-641565,Er5Sb3,0.0
mvc-11458,WO2,0.0
mp-37779,Fe5CuO8,0.0387000000000004
mp-980044,YbPrCd2,0.0
mp-3046,Yb3Sn13Rh4,0.0
mp-14791,Ge2Te5As2,0.4092000000000002
mp-780121,Fe4O5F3,0.0
mp-764277,VO2F,1.6019
mp-510374,GdAs,0.1070000000000002
mp-761953,Li4Nb2Fe3Cu3O16,0.0
mp-769931,Tm3TaO7,3.3792
mp-1029374,BaTiN2,0.0
mp-4393,Cs4U5O17,1.5343
mp-765329,LiVF5,1.9417
mp-616166,Ba2Ho(CuO2)3,0.0
mp-762892,LiCoSiO4,0.7703000000000002
mvc-11547,NiO2,1.4899
mp-1031499,SrMg6SnO8,0.0
mp-1078553,SrHfO3,4.0578
mp-774726,Cu2H26C6S7N12O5,2.5054
mp-1027132,Te4Mo3WS4,0.0
mp-3997,Sm(CuSi)2,0.0
mp-850747,LiFe2P2HO8,3.2551
mp-556747,Ag3SNO3,1.0637000000000003
mp-763131,Li4Fe3Co7O20,0.0
mp-23722,HCl,0.0
mp-581922,CsMo3Br3Cl4,2.5856
mp-32669,Ag2S,1.2959
mp-9951,MnNbGe,0.0
mp-1019576,Ca4SiN4,1.4498000000000002
mp-565780,Sr2VO4,1.5295999999999998
mp-1027977,LaMg14Zn,0.0
mp-19082,TiMnO3,2.334
mp-698101,U(HO)8,2.1088
mp-998972,TiAu,0.0
mp-1098875,BaMg30CuO32,0.5016999999999996
mp-1098528,CsMg30CrO32,2.4737
mp-17774,K2Li3GaO4,3.5967
mp-28176,Te2PdCl10,1.5543
mp-626503,V2HO4,0.0
mp-5921,TaAlNi2,0.0
mp-775225,Nb3Ni(PO4)6,0.0
mp-558557,BaLa4Cu5O12,0.0
mvc-5137,ZnCo(SiO3)2,2.9274
mp-7566,InPO4,2.3413000000000004
mp-1079698,CeSb2Au,0.0
mp-765358,Li3VOF5,2.7786
mp-1657,UAs2,0.0
mp-752424,Ba4Br6O,3.6339
mp-569070,InSi2P(H3C)8,3.7122
mp-704731,KMnO4,2.0507
mp-849472,Li5Co7O3F13,1.924
mp-1568,K3P11,1.93
mp-676580,Ba11(Nb3S14)2,0.4653000000000001
mp-505264,SrMo5O8,1.4265
mp-1080013,UAlRu,0.0
mp-693746,Na17Zr7Sc5Si6(PO6)12,4.1506
mp-34987,Sm(DyS2)2,0.0
mp-556186,P2SN3Cl5O,4.0172
mp-705470,Li3Mo4P5O24,2.5369
mp-641541,Ge3N4,1.4131999999999998
mp-1096282,Zr2GaTc,0.0
mp-767263,LiFe2(PO4)2,1.9141
mp-1098120,KMg6Nb,0.0
mp-765306,Li5VF8,3.0323
mp-773330,Li2Mn3SnO8,0.0
mp-558431,LiCu(PO3)3,0.6768999999999998
mp-1017385,Mg6CdSi,0.0
mp-1076444,Sr2Ca2MnFe3O10,0.0
mp-542765,EuDyCuS3,0.12790000000000035
mp-1036614,Mg14AlZnO16,0.0
mp-1025229,TiGa5Co,0.0
mp-8482,LiYbGe,0.0
mp-28109,SbAsO3,3.5024999999999995
mp-971769,Tm,0.0
mp-767248,LiFeSiO4,2.6071
mp-601882,Fe(SbO2)2,1.3299
mp-768216,Li2BiPCO7,3.7498999999999993
mp-1098082,CsRbMg6,0.0
mp-25229,CuO,0.0
mp-1009835,TaC,0.0
mp-771647,La2Pt2O7,0.4388000000000005
mp-762595,Li2Fe3CoO8,0.0043000000000001926
mp-776708,LiV4O5F7,1.2840999999999998
mp-3311,SrUO4,2.0957
mp-600433,FeHC2O3,1.8731
mp-775216,LiVTeO5,2.5249
mp-774623,Li4Sn(PO4)2,3.1841000000000004
mp-5238,GaCuS2,0.7033999999999994
mvc-9200,CaTiCr(PO4)3,2.3575
mvc-14431,Y2Cu3(WO4)6,0.28390000000000004
mp-690089,Cr2HO4,0.0
mp-7915,ZrSiO,0.0
mp-770629,Li2AlFeO4,3.0927
mp-775365,Al6H16C5(Cl2O)6,5.5157000000000025
mp-1093660,LiMg2In,0.0
mp-18511,NdF3,7.667999999999997
mp-773024,LiCa2Nb3O10,2.0086000000000004
mp-9353,Dy5Ni2Sb,0.0
mp-642019,NdInPd,0.0
mp-4238,MnFeAs,0.0
mp-30155,Ce3SiPd5,0.00019999999999953388
mp-782691,LiFe5(OF2)4,1.6634
mvc-10000,Zn(WO2)2,0.17659999999999965
mp-1096324,Mg2CdPb,0.4428000000000001
mp-650926,Na3Li3Fe2F12,4.0836000000000015
mp-20268,TiGePd,0.0
mp-561414,K3Hg3S2Br5O6,1.999
mp-542568,EuAg5,0.04139999999999988
mp-24141,CsHSeO4,3.6209
mvc-5006,Ca2SnWO6,1.6470000000000002
mp-995147,PbBrCl,3.0727
mp-775472,Cr3Co(PO4)4,0.4997000000000002
mp-781739,LiV8F33,1.1614
mp-776084,BaSiO3,4.542
mp-5990,CsLi(B3O5)2,5.0778
mp-976417,Nd3Hg,0.0
mp-977014,H5PbCI3N2,1.4326
mp-683905,K3Ta2AsSe11,1.1878000000000002
mp-1037235,YMg30BiO32,0.0
mp-771914,Ba3La2Cl12,3.9776
mp-1028918,CeMg14V,0.0
mp-998527,NiBiO3,0.7130000000000001
mp-13735,Rb2TbO3,0.0
mp-29111,Al2Fe3Si4,0.0
mp-764854,Li5Fe8(BO3)8,1.3013
mp-866184,Ti3Pb,0.0
mp-35589,Na3UF7,0.2393000000000001
mp-540140,Li3Mo2(PO4)3,4.0007
mp-768,TmAl3,0.0
mp-767924,Li15(FeO4)4,0.0
mp-767992,LiNi2O3,0.0
mp-540721,NaB5H10O13,5.6657
mvc-8186,Sn(GeO3)2,2.0538
mp-644265,CdH2(CO2)2,4.2202
mp-771989,Mn3NbO8,0.0
mp-31646,LiCr2(PO4)3,0.0
mvc-9684,Ba2AlNi2F11,4.2505
mp-781684,LiNiH12(SO7)2,0.4741
mp-1093730,CdRh2Pb,0.0019000000000000128
mp-559951,SrTa2Bi2O9,2.3040000000000003
mp-763545,LiVPO5,1.668
mp-23723,K2CaH2S2O9,5.3783
mp-768400,Li8FeS6,0.0
mp-781690,Li4Cu2Ni3Sb3O16,0.0905999999999998
mp-1096799,AlO2,0.0
mp-1005752,Sm3In,0.0
mp-1009747,ScSn,0.0
mp-672688,YbSeClO3,0.0
mp-556118,BaHgO2,2.1654
mvc-14222,ZnFeF5,3.0264
mp-31007,Tb5Br8,0.0
mp-771448,Na3SiNiCO7,0.115
mvc-14232,MgNiF4,4.2164
mvc-10931,Ca3Fe2(WO6)2,1.6917
mp-769603,LiVSO4F3,1.1838
mvc-16492,Mg3(Mo3Se4)4,0.0
mp-755770,Ba2LaI7,1.8566000000000005
mp-775702,Li4Cr2Co3Sn3O16,1.0495
mp-767878,Li3FePCO7,4.2364
mp-768973,Ba2YCl7,4.5625
mvc-3672,Ca3Fe2O7,0.01909999999999989
mp-981336,Zn3C,0.0
mp-762624,Li2Mn(NiO3)2,0.4862000000000002
mp-773309,Li2CrCuO4,0.0
mp-32115,MoP4O13,1.5402
mp-778572,Li2VFeP2(O4F)2,1.9499
mp-557778,RbNbSiO5,3.2067
mp-777670,Li4V3Cr3(SnO8)2,1.017
mp-1006132,Hf3Pb,0.0
mp-12022,HgB4O7,1.7956999999999996
mp-1026451,Mg14BW,0.0
mp-1021341,Mg6TiSb,0.0
mp-735519,KHoCoSi2O7,3.0267
mp-2493,CeN,0.0
mp-997539,Li(CoO2)3,0.6197000000000001
mp-30340,ErInAg2,0.0
mp-631455,HfSi2Br,0.0
mp-776744,Li4Mn3Cr3(SbO8)2,0.5144000000000002
mvc-9413,Ba2YSn2F11,3.2299999999999995
mp-849083,Cr2S3,0.16610000000000014
mp-30709,La2Zn17,0.0
mp-1097543,MnNb2Tc,0.5619000000000001
mp-17914,CaGa4O7,2.5336
mp-705892,K2B10H9O,0.0
mp-18735,Ba2Co(BO2)6,0.006299999999999972
mp-765305,LiVCrP2(O4F)2,0.9908
mp-504422,H7NO6,3.5739
mp-560152,SiO2,5.6113
mp-2226,DyPd,0.0
mp-571166,CaBr2,4.4509
mp-1008806,ReC2,0.0
mp-776439,SmTmO3,4.6315
mp-384,MgP4,0.7289000000000003
mp-1080624,YInCu,0.0
mp-636461,Ga2Ge4Pb3O14,2.166
mp-574580,Tl4Pd3Cl10,1.1367
mp-690674,NdAsSe,0.18530000000000024
mp-1073539,MgSi2,0.0
mp-780542,Li2Mn3CrO8,0.2628000000000004
mp-20,Be,0.0
mvc-7329,Ca(SbO2)2,2.1616
mp-780589,Fe3O5F,0.0
mp-972478,TmLuHg2,0.0
mp-23806,BaAsH3O5,3.9765
mp-28003,H6OF4,7.3988
mp-22542,Tm3PbC,0.0
mp-779257,Li3Cu3(PO4)2,0.7500999999999998
mp-542867,YMn2O5,1.2353999999999998
mp-767274,Li3MnSi2O7,1.1607
mp-29456,Rb2IN3,3.9553
mp-23489,CsIO4,2.5288
mp-556269,S,2.3573
mp-707273,U(BH4)4,0.2137
mp-1096532,LiY2In,0.2458
mp-697850,Li2Cr(PO3)4,2.8226
mp-1032022,Mg6ZnSiO8,0.0
mp-1030409,Te2Mo3W(Se2S)2,0.0
mp-28985,SbSeCl9,1.9981
mp-9761,ReO3,0.0
mp-764830,VOF,1.1324999999999998
mp-1080272,CeSe2,0.9993999999999998
mp-22760,La(MnGe)2,0.002799999999999692
mp-13286,CaGe2,0.0
mp-14542,Y3FeB7,0.0
mp-686094,Ti3CuS6,0.0
mp-29251,Te6Br2O11,2.6140000000000003
mp-16264,LiCaSb,0.6443000000000003
mp-1018042,UBi,0.0
mp-989603,LaMoN3,0.8109999999999999
mp-3771,MgTiO3,3.5295
mp-679406,K2HS2NO6,4.5359
mp-675476,K3SnSb3,0.2394000000000003
mp-15147,K2VCuS4,1.2669
mp-1094168,LaMg2,0.0
mp-29556,Tl2WCl6,0.5962000000000001
mp-863717,Pm2NiRu,0.0
mp-779332,B2TeO6,2.5855
mp-17033,CsAlPdF6,0.6158
mp-1025045,TiGaPd,0.0
mp-754,Te2Rh,0.0
mvc-5979,Zn(CuO2)2,0.0
mp-561020,NbP4(SCl)5,1.5812000000000002
mp-652494,Cs4Re6S13,1.3348999999999998
mp-976903,NaNd3,0.0
mvc-2220,P4WO12,3.0322
mvc-7691,Zn2Sb3O8,0.0
mp-1030861,Mg6SiCO8,0.05020000000000024
mp-764903,Li6FeO5F,0.0
mp-5473,CaMgSi,0.0
mp-762152,LiNiPO4,3.391
mp-554961,ZnS,0.0010999999999998786
mp-973622,K3Sr,0.0
mp-557726,Gd2Au5F21,1.6190000000000002
mp-755821,Li5Cu(PO4)2,1.8895
mp-764422,Na2(NiO2)7,0.5751
mp-780032,Li4Co4(OF3)3,0.3823
mvc-10776,CaTi2Be3(SiO4)3,0.0005000000000006113
mp-567172,Cs2NaYbCl6,0.0
mp-652353,PC2S2N3,3.2539
mp-764418,Na3Fe5O8,1.2607
mp-861170,Ti5Fe11O24,1.1496
mp-764924,Mn6OF11,0.3742000000000001
mp-770244,Mn3BiO8,0.0
mp-1097395,Tl2InPb,0.0
mp-756246,NdZrO3,0.05090000000000039
mp-1021293,LiLaMg6,0.0
mp-864670,Ta2VOs,0.0
mp-1035680,KMg14BO15,2.424300000000001
mp-13227,YbMg2Cu9,0.0
mvc-10835,Sr2YBi2O7,0.0044999999999997264
mp-1094601,Li2Mg,0.0
mp-32633,Dy6Se11,0.9470000000000004
mp-861474,Li4VF6,3.3877999999999995
mp-541111,AlGaCl4,4.2218
mp-761424,TiFe(PO4)2,0.2784999999999997
mp-5707,CsAsF4,4.6082
mp-756656,Gd3InO6,2.2306
mp-777510,Fe10O11F9,0.07069999999999999
mp-775829,Ti2N2O,1.0598999999999998
mp-20154,CaTbF6,0.0
mp-698712,Sr5La3Mn8(O5F)4,0.0
mp-853263,Li5V4(PO4)6,0.4039999999999999
mvc-9680,PrZn(WO3)2,1.2916999999999996
mp-626500,Al(HO)3,4.5759
mp-765799,LiNi4(PO4)3,2.8931
mp-24423,SrHBr,3.8289
mp-697263,LiAsH2OF6,4.1762
mp-767860,Li2SiNiO4,2.9164000000000003
mp-1097640,SiTc2As,0.0
mvc-6812,YCr3F15,0.0573999999999999
mp-773601,Li2CuP3H8O13,1.6309000000000005
mp-766667,Li4V3P8O29,1.0252
mp-6169,Ba3Ta6(Si2O13)2,3.0288000000000004
mp-1021984,Mg6TiNi,0.0
mvc-6679,ZnCr2CuO7,0.2288000000000001
mp-762523,Li2Cr2Si2O9,0.5087999999999999
mp-1028287,SrMg14Sn,0.0
mp-1009649,PrN,0.00790000000000024
mp-978114,Sn5O6,1.7702
mp-1077099,EuZnGe,0.0
mp-13287,BaCuTeF,1.3445
mp-1865,UN,0.0
mp-562157,Rb2PbO3,1.236
mp-772189,Bi3Ir3O11,0.09780000000000033
mp-585424,LiCrPO4,2.6276
mp-31147,BaZnSi,0.0
mp-622110,Ba2ErCu3O7,0.0
mp-997036,CdAuO2,0.8887
mp-865848,LuInAg2,0.0
mp-568115,Zr5Si3,0.0
mp-30843,Sr7Pt3,0.0
mp-10256,VTe,0.0
mp-1099334,CeMg6Sb,0.0
mp-510582,NdNiSnH2,0.0
mvc-349,Sr2YAlNi2O7,0.5647000000000002
mp-704225,Mo2P3O13,0.8305
mp-680493,K3Co(CN)6,3.8399
mp-23353,Cu2HgI4,0.5589000000000004
mp-21819,U2Cr30P19,0.00569999999999915
mvc-12444,Ti4ZnO8,0.0
mp-767576,Li6MnO4F,1.2067
mp-771737,Co7O12,0.0
mp-556238,CuC3(OF)3,2.789
mp-971669,FeSb3,0.0
mp-3782,Nd3Sb5O12,3.1547000000000005
mp-1080747,ScAlCO,1.2736999999999998
mp-971863,ZnP,0.0
mp-640173,MnV2O4,1.4876
mp-2811,MoN,0.0
mp-1032654,Mg6VZnO8,0.5317999999999996
mp-605790,Ba,0.0
mp-763512,Li2CoSiO4,2.7693000000000003
mp-19725,Hf(FeGe)6,0.0
mp-1096752,LiY2Pd,0.0
mp-27410,Sn4P3,0.031500000000000306
mp-1079852,ErZnPd,0.0
mp-723540,K6BiH3(Cl2F)4,4.1698
mp-715614,Fe3O4,1.6573000000000002
mvc-15887,AlCrF5,2.3706000000000005
mp-761357,Li3V(PO4)2,1.8613
mvc-6213,Ca3Fe3(AsO4)4,2.3041
mp-491,La3Se4,0.0
mp-698491,NaCa2Al4H8C4ClO20,5.1711
mp-25495,CoP4H16(NO8)2,3.3463000000000003
mvc-1092,Ba2AlCu3O7,0.0
mp-1094683,Mg16Al13,0.0
mp-18935,K2V(PO4)2,2.7252
mp-1095457,Nd2In8Co,0.0
mp-1020650,Sr3Ge2(B3O8)2,4.4198
mp-770673,V5Sb(PO4)6,0.0
mp-532524,TiZn2O4,2.04
mp-1095188,CaNiGeH,0.0
mp-1079261,ErCuSb2,0.0
mp-760052,Hf2N2O,1.8812000000000009
mvc-11417,Ca(CrS2)4,0.0
mp-541416,SrMo3(PO7)2,1.6374999999999995
mp-1017530,VH,0.0
mp-604273,Cu2GeP2(H5O7)2,0.6064999999999999
mp-778593,Li4V2Fe3Co3O16,0.6233999999999997
mp-1015061,NaLi2Sn,0.0
mp-30907,Dy3Co11B4,0.0
mp-2997,ThB2C,0.0
mp-17486,Ho3CuSiS7,1.828
mp-1034167,RbMg14WO16,0.1311
mp-1097129,LiCrRh2,0.0
mp-546279,ScBrO,3.236
mp-669384,Cs2NaCo(CN)6,4.2881
mp-766645,LiNiPO4,3.4791
mp-569932,Tl7(Ag18Te11)2,0.1921999999999997
mp-769274,LiCuPO4,0.0259999999999998
mp-696949,Li3TeHO4,3.5927
mp-28938,Nb3TeCl7,0.7004000000000001
mp-540628,Al(TeCl2)2,1.3285
mp-676077,Ce3Nd2O9,1.9569
mp-32006,MgMn2O4,1.0137999999999998
mp-505654,V2HgO6,2.0142999999999995
mp-850907,LiMn2(BO3)2,0.3985000000000001
mp-1067840,EuMg2Fe,0.0
mp-864625,Ho2IrRh,0.0
mp-767467,Li7Y7Zr9S32,1.0522999999999998
mp-554620,Sr2FeReO6,0.0
mp-12387,YbAsO4,0.024500000000000004
mp-20144,NbCrP,0.030300000000000438
mp-675912,Yb2SmS4,0.0
mp-1094375,Y5Mg,0.0
mp-778625,LiCr2P5O16,2.9931
mp-768893,Mg2(TeO3)3,1.7748
mp-1029235,Te4MoW3S4,0.0
mp-566945,Hg2Mo2O7,2.1943
mp-1828,ThOs2,0.010999999999999231
mp-776910,Li3V3(CoO6)2,1.2374
mp-565232,KCr2AgO7,1.6229
mp-558804,CsGeB3O7,4.5981
mp-558689,Ba2PrIrO6,0.0
mp-973071,Hg3As,0.0
mp-606650,CdPd(CN)6,4.0255
mp-10402,TiTl2F6,3.871
mp-778013,Mn3O5F,0.0
mp-19219,Li3VO4,4.0337
mp-865432,Y2NiIr,0.0
mp-1026384,KRbMg14,0.0
mp-627601,AgSbS2,1.5593
mp-1027958,LaMg14Zn,0.0
mp-1008556,AlGaN2,2.6693
mp-780531,Na3Mn3O8,0.0
mp-999208,Sc2MnSi,0.0
mp-1097084,Fe2IrRh,0.0
mp-622613,Rb2FeC5N6O,2.7914
mp-1078379,FeBiS2Br,0.16750000000000045
mp-962057,SrCaSi,0.5002
mp-770593,LiCo2(SO4)3,0.4373000000000001
mp-865808,LiNd2Ir,0.0
mp-578784,Ba(FeO2)2,1.9016
mp-1023923,O2,2.319
mp-765499,Li3VF6,2.4358
mp-763709,LiV2PO7,1.1581
mp-705586,SrLa9Mg2Ga6(FeO14)2,0.8176000000000005
mp-30555,TaGaCo2,0.0
mp-850101,LiV6O7F5,1.0366000000000004
mp-1063517,YbPd2,0.0
mp-861571,LiMnVO4,1.6437999999999997
mp-1019584,CaAl2SiO6,4.605699999999999
mp-30169,Ba4Ni3Ge20,0.0
mp-19217,ErMnO3,0.0
mp-697076,Ti3Zn3C,0.0
mp-766603,Li5Fe8(BO3)8,0.6829999999999999
mp-1084805,YH3,0.0
mp-604239,Co2H34N12Cl3O10,0.3024
mp-20649,Y(MnGe)2,0.018299999999999983
mvc-4560,Si2MoO7,0.1651999999999999
mp-566683,K2Cr3(ClF3)2,2.3631
mp-1020181,Na2ZnB6O11,4.7511
mvc-15152,MnZnO2,0.0
mp-761735,Li2Fe2Si4O11,3.4439
mp-25035,MnBiO3,0.17250000000000032
mp-755357,NdAsO4,3.7403
mp-10328,LaCrS3,0.2587999999999999
mp-628930,Mn(NO3)2,2.7704
mp-1037676,Mg30FeSiO32,0.0
mp-771967,BaLaCl5,3.4009
mp-643412,MnH2SeO5,2.0157
mp-2067,ThGa2,0.0
mp-1429,SmCo5,0.002400000000000624
mp-543082,Fe5O8,0.038000000000000256
mp-763340,Ti3Fe2P6WO24,0.09370000000000013
mp-1079925,Sr2YCrO6,0.0
mp-765392,Li6Fe9CoO20,0.0
mp-765668,V2O3F,1.2359999999999998
mp-867255,LiZn2Au,0.0
mp-1035222,Mg14CuSiO16,0.6083999999999996
mp-779723,Ba2P6O17,5.1667000000000005
mp-1026735,CeMg14Sb,0.0
mvc-9709,CaTi2P2O9,0.0
mp-1099300,Mg6SnB,0.0
mp-639724,SiO2,5.6711
mp-16108,Cs3P6N11,4.2177
mp-983585,Al3Zn,0.0
mp-1093795,CaInPd2,0.0
mp-763339,Fe7(SiO6)2,1.1102000000000003
mvc-7855,ZnBiWO5,1.7176
mp-744256,MnH5SO7,0.6941
mvc-10166,MgFe2(PO4)2,3.1724999999999994
mp-27335,NaAlSi,0.0
mp-1028362,Mg14NiSn,0.0
mvc-9999,CaLaCrSnO6,2.3656
mvc-13313,Ba2AlTlCr2O7,0.0
mvc-13224,YMn2O5,1.0726
mp-16719,Al12Tc,0.0
mp-989552,LaMoN3,1.1506000000000007
mp-754140,CaSeO3,4.1407
mp-973853,Pa3Tc,0.0
mp-1551,Te2Ir,0.0
mp-615550,BaMo2(PO6)2,2.9956
mp-767848,Li3Cr4(PO4)6,0.05079999999999996
mp-30841,UPd3,0.0004000000000008441
mp-1032982,CaMg6SiO8,0.0862999999999996
mp-1071567,GdSn2,0.0
mp-568934,Ti4AlN3,0.0
mp-1016614,Mg6CrW,0.0
mp-560282,K2Ba(NO2)4,2.1777
mp-764488,LiMnV(P2O7)2,1.2975000000000003
mvc-12394,MgTi2O4,0.0
mp-862817,PaHgAu2,0.0
mp-505343,U(CoB)4,0.01920000000000144
mp-557494,AgBTe4C2(O3F10)2,2.8863000000000003
mp-7748,NaAlO2,4.7292000000000005
mp-30906,Sr2Al6O11,4.3566
mp-754246,TiSnO3,1.1151
mp-573566,CsCr5Se8,0.022699999999999942
mp-758604,LiAgF2,1.3844
mp-769917,Ho2Mn2O7,0.9335
mp-768342,SrNb2O4,1.1539
mp-1019564,Ca6Ge2O,0.2902
mp-12769,YSi2,0.0
mp-769582,Sr5Ta4O15,3.3459000000000003
mp-560385,KRb2CoF6,0.0
mp-36007,Ba(NdSe2)2,1.5999
mp-1023262,Mg6AlBi,0.0
mp-770264,Li4Cr3CoO8,0.8600999999999996
mp-504630,InTeCl,1.6597999999999995
mp-30232,Tb3SiBr3,0.0
mp-770584,Sr3WO6,3.4214
mp-1027281,MoWSeS3,0.4950000000000001
mp-505705,TlV3Cu5O13,0.017900000000000027
mp-17334,Sc2Cr4Si5,0.0
mp-714960,VO2,0.9166
mp-893,ZrSi,0.0
mp-625087,U(HO2)2,1.9023
mp-22792,MnTePd,0.005100000000000549
mp-1018070,Ti2InFe,0.0
mp-22027,MnSnAu,0.003099999999999881
mp-3707,CaGe2O5,2.4285
mp-781963,Li2FeO2F,1.8356
mp-850362,Li4MnFe3(BO3)4,3.1630000000000003
mp-769797,Li3Fe4CoO8,0.0
mp-531195,Sr2NF,1.2984
mp-7439,K3Cu3P2,1.2892
mvc-16004,Ti2Zn3O7,2.5493
mp-1021370,HfMg6Sn,0.0
mp-9948,V5Te4,0.0
mp-4016,TlGaS2,1.7885
mp-600049,SiO2,5.6468000000000025
mp-722977,Na2Si(H3O2)6,4.7453
mp-510232,Nd12Co6Sn,0.0
mp-777714,Na4CoO4,1.2982
mp-772771,La4(B2O5)3,4.555999999999999
mp-1036,NpRu2,0.0
mp-566281,NiAs2S6(NF3)6,2.7732
mp-1027671,MoW(SeS)2,0.7778
mp-1076342,Ba7SrCoCu7O24,0.0
mp-23986,NaH6ClO5,3.0156
mp-683906,Yb5Cu11Sn8,0.0
mp-585964,SbS3N2Cl7,1.818
mp-570921,CsLu(NbCl3)6,0.9451999999999998
mvc-11745,Zn(CrS2)4,0.0
mp-764910,Ni3OF5,0.2744000000000002
mp-677231,CaNd2Ti2ZnO9,2.4057
mvc-8464,NiP2WO9,2.2634000000000003
mp-1739,Hf5Ge3,0.0
mp-5784,Na2GeO3,2.9873
mp-744710,CoPH3O5,0.1262
mp-1026625,Mg14SnBi,0.0
mp-779522,Ho2P4O13,5.3595000000000015
mp-1095534,C,0.9238999999999996
mp-1037572,SrMg30FeO32,3.5956
mp-1096476,LiLa2Cd,0.0
mp-1026546,BaMg14Cr,0.0
mvc-786,MgMn4O6,0.0