mpid,formula,gap pbe
mp-1025206,Eu2AlNO3,0.0
mp-780921,CeCrO3,0.0
mp-972112,Sr2MgUO6,2.1157
mp-779388,Li24Mn5Cr7O36,1.0202
mvc-7796,ZnCo3O7,0.0
mp-1095340,BaTbAgS3,1.0051
mp-628735,KEuPS4,0.5602999999999998
mp-1021406,KMg6B,0.0
mp-979937,Yb3Ru,0.0
mp-1096529,LaMg2Sc,0.0
mp-24897,Cr3O,0.10820000000000007
mp-865238,Lu2MgAl,0.0
mp-651951,MnV2TeO7,1.7484000000000002
mp-15653,CeSi2Ni,0.0
mp-30839,Th3Pd5,0.0
mp-15120,RbFe2Se3,0.0
mp-649327,Mo6PbBr14,2.3552
mp-862539,BH6CN3F4,5.6634
mp-8341,NaGeSbO5,2.3243
mp-504748,P3Pb5ClO12,3.3891000000000004
mp-675376,HoAgSe2,0.7128000000000001
mp-1009009,LiF,7.559299999999999
mp-981549,Y3Th,0.0
mp-763692,Li2(FeO2)3,0.0
mp-761515,Li6V3P8O29,0.9861
mp-677061,Cs3MoC6(SN2)3,0.0
mp-767757,Li3Cr4(PO4)6,0.0
mp-764391,Li3TiCo3O8,1.9532000000000005
mvc-13047,Ba2CaTl2(CuO3)4,0.0
mp-20423,Nd3SnC,0.07390000000000008
mp-1076768,K5Na3Nb8O20,0.0
mp-129,Mo,0.0
mp-1098389,KMg30CO32,0.2798000000000007
mp-1095745,MgInPt2,0.0
mp-643158,PH8IN4,4.0455000000000005
mp-865603,Y2IrRh,0.0
mp-645135,Tb2MnNiO6,1.6879
mvc-13175,Ta2MnZnO8,1.1542
mvc-4466,V2Zn3(GeO4)3,0.0
mp-1077595,CN2,1.198500000000001
mp-680550,ZnP2,0.0
mp-861533,Na2Li2CoO4,0.6292
mp-976590,HoTlRh2,0.0
mp-553308,CsNdO2,2.9251
mp-977475,ZrInPd2,0.0
mp-1077960,Er2Mo2C3,0.0
mp-21505,YAgPb,0.0
mp-1096568,LiCu2Au,0.5463999999999998
mp-567840,Tm(CuGe)2,0.0
mp-558128,KNd2NbO6,3.6165
mp-974364,RuAu3,0.0
mp-567723,Nd(NiAs)2,0.0
mp-769831,Li3MnCr4O8,0.6288
mp-567720,CuHgSeBr,0.4629000000000001
mp-1077107,HgO,1.2429999999999999
mp-557259,MoF6,4.1644000000000005
mp-695960,NaZn(HO)3,3.2005
mp-1026931,Te2Mo3W(Se2S)2,0.0
mp-780915,V4OF11,0.9634
mp-757796,Al2H10S3O17,5.6867
mp-31972,Li3Mn(PO4)2,1.3005999999999998
mp-753917,Y2HfO5,4.5615000000000006
mp-777773,LaTa2NO5,2.224
mp-770315,RbFeO2,2.0316
mvc-16758,Li(MnS2)2,0.0
mp-572921,Cs2Ga3As5O18,2.4251
mp-556228,Na5Ca4P4O16F,4.7165
mp-1095563,ScSiIr,0.0
mp-1040210,KHfMg30O31,0.021300000000000097
mp-763432,Li2VO2F,0.15229999999999988
mp-690538,Co3(AsO4)2,0.0
mp-769539,Li7VGeO8,3.5013
mp-1066232,Fe3Pt,0.0
mp-866299,ErTaOs2,0.0
mp-35717,LiDySe2,1.7345000000000002
mp-1098822,Mg30FeBiO32,0.3639000000000001
mp-1021670,TiAgSe2,0.0
mp-762478,LiMn3Al2(HO2)6,0.7926000000000002
mp-645942,Rb6U2W4O21,2.1665
mp-779046,Li5Cu(PO4)2,2.0374000000000003
mp-11497,TbMg2,0.0
mp-777360,Li13V24O52,0.5977000000000001
mp-13774,NaNdSiO4,4.4774
mp-31176,HoNiSn,0.0
mvc-10873,CrO2,0.2954000000000001
mp-1059357,NaSe,0.0
mp-763010,Fe4O5F3,0.09339999999999993
mp-38468,Li7Ti12O24,0.0
mp-758675,TeH14C2(NO2)4,2.7712
mp-3592,KAuS5,1.7571
mp-1039659,CeMg2,0.0
mp-762683,LiMnPO4F,0.9336999999999998
mp-1078807,Nb3In,0.0
mp-772570,CoNCl4O3,0.4651999999999998
mp-647924,Eu2O3,0.0
mp-15039,Ba2Yb(CuO2)4,0.0
mp-6724,K2Cd2(SO4)3,3.8609
mp-32684,HBr,4.4860000000000015
mp-767343,Li3CrPCO7,2.6734
mp-975906,LiAl3,0.0
mp-862824,PaInPt2,0.0
mp-759870,BiOF,2.9045999999999994
mp-1080658,LiErSn2,0.0
mp-27399,SbBr3,3.3684
mp-994,YP,0.0
mp-579779,Pr2P3Au,0.0
mp-570887,K2Ag2SnSe4,0.8444
mp-487,MnP4,0.4924
mp-579459,NaNi(PO3)3,4.7105
mp-1033551,RbMg6GaO8,0.10169999999999924
mp-771293,Mg3WO6,3.9264
mp-764833,Li4V3(OF2)4,1.384
mp-1027950,YMg14Ga,0.0
mvc-6997,ZnP2WO7,1.4878999999999998
mvc-16103,Sr2TaAlCu2O7,0.0
mp-559051,BaBiO3,0.0
mp-28378,HfFeSi2,0.0
mp-1095128,TiPOs,0.0
mp-979012,Tm2AlZn,0.0
mvc-4454,Ti2AlO4,0.0
mvc-8440,MgTi(Si2O5)2,0.0
mp-779352,Mn2O3F,0.0
mp-753345,Ba2CaI6,3.4758
mvc-6055,Zn(SbO2)2,0.24219999999999955
mp-8985,Ba2YC2(O2F)3,5.263999999999999
mp-764114,Li4V3P8O29,0.5292
mp-778568,V2O3F,1.1504
mp-1094247,MgSn,0.0
mp-1077722,ScZnPt,0.0
mp-33916,Nd2CuO4,0.7073
mp-560326,Ba5B3CNO9,3.3351
mp-25152,RbVP2O7,1.8846
mp-557516,K2Be2Zn2Si3O11,3.5047
mp-723480,BaZn3P4(H7O9)2,0.0
mp-605860,Ba2LiN,0.0
mp-25483,LiCo(WO4)2,1.1327
mp-1080279,CeSe2,0.4495
mp-561634,BaNdMn2O5,0.0
mp-32024,Li3Mn2(PO4)3,1.1494
mp-510751,CuO,0.010200000000000207
mp-9478,BaSi4O9,4.3439
mp-768095,KV13O20,0.5906999999999996
mp-15003,Ca3HfSi2O9,4.6779
mp-570774,Zr5Al4,0.0
mp-776000,Ti3Mn2Sb(PO4)6,0.0343
mp-770496,Mg2Mn3O7,0.5144000000000002
mp-703595,Cd13I28,0.0
mp-637378,Gd3InN,0.0
mp-2866,Yb(FeSi)2,0.0
mp-1018695,EuBiAu,0.0
mp-29595,CeBN2,0.0
mvc-13231,Nb2(CoO3)3,0.02180000000000004
mp-30189,K5(DyI4)3,0.0
mp-972322,Yb2SiO5,0.02100000000000002
mp-1665,YbFe2,0.012900000000000134
mp-771598,V(SO4)2,0.8851
mp-1049,SrAs,0.0123000000000002
mp-21440,NbCrGe,0.0
mvc-11986,Mg3V2O8,3.3680000000000003
mp-744025,Sr8Mg3Fe(MoO6)4,9.999999999976694e-05
mp-14245,Dy2Si5Rh3,0.0
mp-9382,SrZrN2,0.32369999999999965
mp-568244,TlSn2Br5,2.3666
mp-5893,CaSiO3,3.4515
mp-1027936,Mg14ZrCo,0.0
mp-566412,NaFe(SeO4)2,1.8817
mp-1096737,ZrInCo2,0.0
mp-864912,YbGaPt,0.0
mp-672657,Hf6Co16Ge7,0.0
mp-1074597,Mg4Si3,0.0
mp-771531,Li5Fe7O12,1.221
mp-754782,Na2CdO3,0.0
mp-776847,Li4Nb3V2Fe3O16,0.7364999999999999
mp-566806,V16O3,0.03960000000000008
mp-561242,TaAgS3,0.0
mp-13664,Sr2Ta2O7,2.928
mp-1008809,PtN2,0.0
mp-861600,Ho2ZnIn,0.0
mp-769993,LiMnPHO5,0.7873000000000001
mp-21292,Tm3InC,0.0
mp-8703,Na3SbSe4,0.9766
mp-1021371,Mg6SnSb,0.0
mp-569118,Cs3MnI5,2.2911
mp-866106,Ba2HgPb,0.0
mp-763258,FeP4O11,3.7104
mp-5518,GaAgSe2,0.24839999999999995
mp-21367,LaIn2Pd,0.0
mp-1094312,ZrSn3,0.0
mp-865155,MgAlRh2,0.0
mp-972970,ScSiRh2,0.0
mp-1097579,LiAlGa2,0.6210999999999998
mp-772014,NbCo3(PO4)4,0.6510000000000002
mp-493,Co2B,0.0
mp-775633,Na6Mn7O10,0.11970000000000035
mp-5012,Li2SiO3,5.0766
mp-29446,B3H4,2.315
mp-978796,SmDyIn2,0.0
mp-695295,H22RuN7(ClO2)4,0.8401
mp-779789,Li4Mn3Fe(BO3)4,2.9000000000000004
mp-1072852,CdB2,0.0
mp-770941,Li4Mn3Nb2Fe3O16,0.7705000000000002
mp-32594,Sm2Se3,1.4541999999999995
mp-776915,V5O12,1.3306
mp-20579,DyCoSn2,0.0
mp-15668,NaSe,0.4799
mp-777251,Li2Mn3(BO3)3,0.18710000000000004
mp-1029633,CaSnN2,1.3772000000000002
mp-691107,FeOF,1.6921
mp-769482,Na3Mn2P2(CO7)2,0.0
mp-569635,Ba6Zn(InCl10)2,3.5668
mp-1030524,MoW(SeS)2,0.6101999999999999
mp-752596,YbSmO3,0.0
mp-1096405,BaSr2Ca,0.30400000000000005
mvc-9029,CaCuBiO5,0.8046000000000002
mp-648469,SbP2SN3Cl10,1.8198
mp-568793,Ca28Ga11,0.0
mvc-4964,MgMn2O4,0.0
mp-1023481,Mg6MnAl,0.0
mp-767211,LiMn2(PO4)2,0.0
mp-744839,FeP2H24C8S4NClO4,3.1831
mp-961668,AlVPt,0.024099999999999788
mp-977593,Tm2CuTc,0.0
mp-558763,Ag2Hg(SeO3)2,1.8132
mp-905285,LaMnO3,0.0
mp-20318,Mn2B,0.0
mp-556778,BaTeF6,4.8353
mp-684710,Cu9S5,0.0
mp-1094082,Ni4O,0.0
mp-867978,SmInRh2,0.0
mp-20776,U(CoGe)2,0.002000000000000668
mp-556420,Rb2NaMn3F12,1.8271
mp-1018680,DyTlZn,0.0
mp-10618,LiInSe2,0.8574999999999999
mp-1073829,MgSi,0.0
mp-1069477,GdSi3Ir,0.0
mp-43030,Na2Li2Al3Si3ClO12,5.1381000000000006
mp-573508,Cs3MnCl5,2.8967
mp-867915,ScGaCo2,0.0
mp-612185,NiPtF6,2.0824
mp-20742,EuPSe3,0.4156999999999997
mvc-8471,Bi2O5,0.0
mp-20220,CaInRh,0.0
mp-28810,Na2CS3,1.215
mp-6000,La2Ti3(AgO5)2,1.9412000000000005
mp-20984,Ce3In,0.00429999999999886
mp-1059552,SmBi,0.0
mp-714880,VO2,1.3804999999999996
mp-647606,Cu3SbS3,0.0
mp-675606,Li5AuO4,2.1316
mp-23232,FeBr3,0.0
mp-771786,Li2MgNi3O8,0.8093999999999997
mp-6433,KNd(PO3)4,5.3418
mp-997035,CuO2F,0.7835000000000001
mp-675127,FeSbO4,1.0037000000000005
mp-510564,NdIn5Rh,0.0
mvc-12050,NiO2,0.35619999999999985
mp-772573,Li2Cr5B3O13,1.2860999999999998
mp-510376,CeBRh3,0.015200000000000102
mp-1099215,RbCeMg14O16,0.0
mp-543046,CsScP2(HO4)2,4.915
mp-20940,TiCdO3,2.4627000000000003
mp-33631,TiZn2O4,1.564
mvc-14224,MgWF5,3.3849
mp-5020,BaTiO3,2.5441000000000003
mp-2221,Zr2Ag,0.017300000000000537
mp-556809,Sr11(OsO6)4,0.0
mp-30750,CeAl4Ni,0.003199999999999648
mp-560005,TlRe3(S2Cl)2,1.8243
mp-675325,Al(Ag3S2)3,0.7057
mp-1076897,Ca7MgMn8O20,0.0
mp-12911,Ba2LaRuO6,0.3705000000000003
mp-779169,Li3MnF6,1.6087
mp-1025439,CsCuC2,2.0451
mp-27726,SO2,2.8828
mp-25476,CoO2,1.2389
mp-780705,Na(Bi3O5)4,0.0
mp-567014,Rb2Te(WO4)3,2.9664
mp-18109,RbDy(SO4)2,5.666399999999999
mp-1016599,BaMg6Mo,0.0
mp-861635,LiNi4(PO4)3,3.4441
mp-631336,LaMgNb2,0.0
mp-642847,Li4H6Ru,2.388
mp-558495,SrFe2(PO4)2,3.6598
mp-1099081,CeMg14Ni,0.0
mp-7220,NaY3SiS7,2.1984
mp-1080358,CeSe2,0.006200000000000039
mp-4893,Hf2SnC,0.0
mp-776516,FeSb3(PO4)4,1.3695
mp-1016837,SnHgO3,0.0
mp-560584,Si2Ag6O7,0.17580000000000018
mp-555151,ZnS,2.0245
mp-31423,Ho3(CuSi)4,0.0
mp-583800,Zr2Cu,0.0
mp-1030268,TeMoWSeS2,0.0
mp-1028207,Mg14AlFe,0.0
mp-17910,Nb5Ge3,0.0
mp-24207,H6CN4O,5.0424
mp-510519,Rb2V3O8,2.0721
mp-23961,Na3AsH18Se4O9,1.329
mp-31941,Mn2(PO4)3,0.0
mp-1018699,EuZnGe,0.0
mp-505011,YCo5P3,0.03779999999999984
mp-1098218,Mg30CuSiO32,0.0
mp-1038783,CaZn,0.0
mp-642831,RbP(HO2)2,5.4044
mp-1098874,Mg30CoNiO32,2.7478
mvc-9040,MgMn2(PO5)2,0.0
mp-1080536,Pt(NF3)2,0.0
mp-780750,LiMnSiO4,0.0
mp-17697,KSmF4,7.3982
mp-1078669,NpTe3,0.0
mp-777890,Ti3NiSn2(PO4)6,2.0712
mp-615,YMg,0.0
mp-558663,Ca2CuTe4(ClO5)2,0.7174999999999998
mp-21963,YTl5Cu2(NO2)12,0.6882999999999999
mp-755374,Sm2TeO6,2.5849
mp-865855,Ac2SiPd,0.0
mp-762753,Li3Mn5(NiO6)2,0.4935999999999998
mp-1857,YbCd,0.0
mp-19342,WO3,1.6833
mp-554885,Ba3Si6N4O9,4.372
mp-11604,KSm2CuS4,0.9390999999999998
mp-19610,Ca3Mn2O7,0.4083000000000001
mp-570301,AgBr,0.7
mp-1096061,CaBiAu2,0.0
mp-1077691,SrCa7Mn6(FeO10)2,0.0
mp-21003,Y2ReC2,0.0
mp-8792,Yb11(Ni10C)6,0.0
mp-21422,YCoC,0.0
mp-8013,KRuF6,1.2199
mp-554163,Cu5Se2(ClO4)2,0.2178
mp-4107,Li(CoGe)6,0.0
mp-744260,LiLa(MoO4)2,3.7484
mp-1026527,BaMg14Bi,0.0
mp-694954,Ca9LaTi9MnO30,0.0
mp-1018852,OsN2,0.0
mp-764167,Na8Fe7(PO4)8,0.005700000000000038
mp-1038378,HfMg30BO32,0.06639999999999979
mp-401,Sc2S3,0.6433000000000004
mp-753720,Li3BiS3,2.4456999999999995
mp-778683,Li3MnFe2(BO3)3,2.7981
mp-16190,Lu4Zn5Ge6,0.08139999999999993
mp-764692,LiVCuO4,0.0
mp-1075098,Mg3Si4,0.0
mp-777632,Li3MnB8O15,1.3799
mp-998323,CsInBr3,0.0
mp-978993,Th3S,0.0
mp-542454,Mo2As3,0.007299999999999862
mp-6278,Zn2Cu(AsO4)2,0.4821000000000002
mp-952566,NaSnSb,0.0
mp-1031722,Mg6CoBiO8,0.0
mp-27236,Sb2I2F11,0.007599999999999996
mp-614444,ZrZn,0.0
mp-984604,TiPHO5,2.8786
mp-1080672,Th(BRu)2,0.0
mp-971864,U2Ga2O5,0.0
mp-782047,Ca9La5Cl33,3.6799
mp-762007,Li7(NiO2)9,0.3557000000000001
mp-253,ScCo2,0.002799999999999692
mvc-12841,CoO2,1.2174
mp-24273,CdH20C4S4(NO6)2,4.9305
mp-30874,Th5Sn4,0.02770000000000028
mp-5796,Ho(MnSi)2,0.0
mp-777579,Li8Fe7Sn(PO4)12,0.0
mp-1028068,Mg14MnMo,0.0
mp-853139,Li2V(PO4)2,2.9619999999999997
mp-2630,SrC2,1.6718
mp-505227,NiP4O11,4.9511
mp-1030618,Mg3ZrO4,0.0
mp-774409,V3Fe2CuO12,0.3914
mp-766911,LiVF4,2.2904
mp-7199,RbPrTe4,0.18599999999999994
mp-625397,Nd(HO)3,3.7396
mp-505787,Ba3FeO5,0.0056999999999998155
mp-1008275,Cr3Ni,0.0
mp-761478,LiFePO4,3.4132
mvc-7695,Ta2ZnCoO7,2.6746000000000003
mp-639741,SiO2,5.6595
mp-1063311,EuPd2,0.0
mp-1608,ZrHg3,0.0
mp-1079679,K2CdSn,0.16679999999999984
mp-2816,Nd2Tl,0.0057999999999998044
mp-9759,BaPr2PdO5,2.2471
mp-987206,Co,0.0
mp-585331,Li4Co5(P3O11)2,1.8053
mp-795717,Sr2NiWO6,3.2676
mvc-3610,Mg3Mo2O7,1.8314000000000004
mp-672672,NaUO3,0.4310000000000001
mp-1028191,CsCaMg14,0.0
mp-1018686,ErH2,0.0
mp-975275,RbNa2Sb,0.5722999999999998
mp-1038365,Mg30MnAlO32,0.9726999999999996
mp-628616,Na3Li3N2,0.0
mp-1094637,MgGa,0.0
mp-567730,Pr2B3Cl,0.0
mp-775091,Li5V5(NiO6)2,1.354
mp-760594,LiTi2O4,0.0
mp-604453,CeBiPd,0.0
mvc-12913,Ca2FeWO6,2.1867
mp-15380,Sb9Se4F39,1.9538
mp-568698,Mn2H30C9N3Cl7,1.7453
mp-763627,Li17(Co4O9)2,0.9237
mp-674328,Zn(InS2)2,1.4023999999999996
mp-541537,K2ZnSiO4,3.4889
mp-19495,NdCo(BO2)5,3.1212
mp-10195,LuS2,0.0
mp-1018740,LaCoSi,0.0
mvc-1004,ZnP4W3O14,1.4825
mp-676361,Li3ErCl6,5.2109000000000005
mp-35893,KAlO,0.1318999999999999
mp-1093687,Ti2OsRh,0.0
mp-1057889,Dy,0.0
mp-7015,CsCeS2,0.04289999999999949
mp-850909,Li3Mn2(PO4)3,0.5005
mp-1008601,ZrAg2,0.001300000000000523
mp-601178,H6C2NO,2.5941
mp-756273,Lu(HO)3,4.1776
mp-1077374,ThSiS,0.0
mp-4822,Y(SiPd)2,0.0
mp-1095532,VSiNi,0.0
mp-567401,Tb4Zn5Ge6,0.0
mp-1097560,Al2OsRu,0.0
mp-1032931,HfMg6AlO8,0.0
mp-1097432,Hf2InMo,0.0
mp-676269,Yb2FeS4,0.0
mp-570213,LiMgBi,0.3618999999999999
mp-1094390,MgTi,0.0
mp-1020608,SiP2O7,4.9422000000000015
mp-690039,Mn4P7O24,0.03849999999999987
mp-698419,ZnH6C2(NCl2)2,0.0
mp-23080,AlBiO3,1.5859999999999994
mp-566668,Rb2Cr2Cd(H2O5)2,2.7002
mp-685209,Sc39N34,0.0
mp-1094182,LaMg,0.0
mp-1029474,Ca7SiN6,1.8303
mp-7310,ZrPbF6,5.0238
mp-30097,Bi2Te7Cl8,0.7624999999999997
mp-1056311,Pr,0.0
mp-850975,Na4Ni2C4SO16,0.0
mvc-5861,Zn2NiIrO6,0.0
mp-763869,Li10Fe5Co3O16,0.6031
mp-973554,K3Sm,0.0
mp-763028,Li4FeCo9O20,0.0242
mp-19669,Dy4Mo4O11,0.4894999999999996
mp-975609,Li2TlPb,0.0
mp-723049,BeH4NF3,6.1675
mp-1098892,Mg30CoSiO32,0.0
mp-13363,SiPt3,0.0
mp-765840,Li4V3Co(PO4)4,0.6162999999999998
mvc-16558,CaMo2O5,0.8407000000000004
mp-4044,ErAgSe2,1.2832999999999997
mp-776756,Li4TiMn2Ni3(PO4)6,2.3394
mp-1017128,Mg6BiC,0.0
mp-560685,K2Ge(IO3)6,3.1645
mp-676712,ReSeCl,1.5368
mp-1026890,Mg14CrCu,0.0
mp-720230,Ba4Na3Nd3P6(O12F)2,4.8457
mp-770500,Na6Mn2B4SO16,1.4534000000000002
mp-566048,Ba2La2Mn(WO6)2,1.5055000000000005
mp-868012,Li4Nb3Fe3(SbO8)2,1.0902999999999996
mp-542085,Sr2GeO4,3.5302000000000007
mp-556529,Cs2MnBi2S5,1.0505999999999998
mp-1095504,HfCuGe,0.0
mp-6478,LiTaGeO5,3.7398
mp-1022980,Mg6MnV,0.0
mp-20172,ErMnGe,0.019199999999999662
mp-775916,LiSnPCO7,3.2058
mp-569338,YbAlPd,0.0
mp-1096754,Tc2GeAs,0.0
mp-7342,Sm3Ir,0.0
mp-1037239,Mg30NbCuO32,0.3394000000000004
mp-20983,V2InC,0.0
mp-25774,Na2Mo2O7,3.2119999999999997
mp-765775,Li2V2SiGeO10,1.8505
mp-1009490,O2,1.5865999999999998
mp-989190,ScBrO,3.3514000000000004
mp-560553,IrF6,0.7656000000000001
mp-775922,SrNb3NO7,1.5305999999999995
mp-540485,Mn(PO3)4,1.0449000000000002
mp-5884,TmPO4,6.1203
mp-625447,Pr(HO)3,3.7453
mp-758225,Bi10(Pb2O7)3,2.3528999999999995
mp-1094199,Mg5Sn,0.0
mp-559502,Ba3NaNd3(Si3O10)2,4.5793
mp-12324,CsVP2S7,0.0
mp-8191,Cs2PtF6,2.4806
mp-557006,Na2SbSO4F3,4.4339
mp-570187,Tb5BiAu2,0.0
mp-570306,TlGaI4,2.5666
mp-541277,CaYbInS4,0.04830000000000001
mp-505137,Nb3SiTe6,0.0
mp-865325,Lu2CoRu,0.0
mp-643547,CoH2SO5,2.8471
mp-651691,KCrCuF6,0.3778
mp-571199,TiAl,0.0
mp-1023156,CaMg6W,0.0
mp-765391,LiNiPO4,3.2237
mp-628279,Cs6Si2NiO8,3.0929
mp-706304,H18RuC6S3N3ClO3,2.5151
mp-29415,Cd3PCl3,1.8279
mp-1025248,TlPd5Se,0.0
mp-853224,Ti7(WO5)6,0.0
mp-10233,Ca2BN2F,2.9278
mp-1370,CsSi,1.6183
mp-555509,Ho3CuGeS7,1.7592
mp-978850,Sm2ReC2,0.0
mp-1016660,HfMg6Mo,0.0
mp-3395,SrSeO3,3.6958
mp-1064161,NaN3,0.0
mvc-15838,ZnSnF5,0.0
mp-1195,Ba3P14,1.7609000000000004
mp-12693,Mg2Rh,0.0
mp-752674,BaY3F11,7.0887
mp-582826,GdRuC2,0.0
mp-652695,Re(SeCl6)2,0.8807999999999999
mp-764890,FeOF,0.3609
mp-39699,K3Ba7Ti10(O9F)3,0.03859999999999975
mp-699324,LiFe(PO3)3,4.189500000000002
mp-1095397,SnS2,1.2238999999999995
mp-1077518,ErCu4Pd,0.0
mp-24810,NaBH4,6.2163
mvc-8386,CaV(GeO3)2,0.4308999999999994
mp-620190,V2P4S13,0.1524000000000001
mp-866521,Ca2SnS4,1.6020999999999996
mp-770121,Li8TiMn3(PO4)6,1.3653
mp-22873,SmBi,0.0
mp-972793,Si2B2O5,0.0
mp-867159,SmDyMg2,0.0
mp-683941,Nb14S5,0.0
mp-1026638,HfMg14Sn,0.0
mp-570690,SiC,2.008000000000001
mp-758984,BPH9C2,5.6154
mvc-9180,CaMn3O7,0.0
mp-30510,Ce(Ni2Sn)2,0.0
mp-20309,EuPb3,0.0
mp-32508,Li3V2P5O16,2.8362000000000003
mvc-11457,WO3,0.0
mp-30152,CeSbTe,0.0028999999999994586
mp-850365,Ni5Te(PO4)6,0.0
mp-861898,Rb3GePSe7,1.5629
mp-568493,In3SnI5,2.0773
mp-698494,K2BiH5(CO2)5,4.112
mp-766734,LiMnPO4,3.2264
mp-675576,K(FeAs)2,0.0
mp-680301,K3AsO4,3.3075
mp-556176,Li2ZrF6,5.481199999999999
mp-1094087,Sr10Fe10O29,0.0
mp-541963,Rb3(FeSe2)2,0.007700000000000041
mp-762019,LiV(CO3)2,2.0017
mvc-3762,Mg2Ti2O5,0.0
mp-764181,Li2Co3OF6,1.6904
mp-975933,NdHoIn2,0.0
mp-708999,KSn2H36C12(Se2N)3,1.8887
mp-769271,Sr4Ta2O9,4.1957
mp-1033259,Mg6CdBiO8,0.0
mp-3963,K2CO3,3.6392
mp-979436,YOsO3,0.0
mp-1097025,GaFe2BO5,1.8863
mp-557662,Ca2Mg5Si8(O11F)2,5.0192000000000005
mp-780434,Fe10O11F9,0.0
mp-16907,RbNpN3O11,0.12729999999999994
mp-16097,CeSc3(BO3)4,0.2249000000000008
mp-756394,Li2V2S5,0.14500000000000002
mp-982048,Ge2O3,0.6884000000000001
mp-849699,V3O5F,0.43359999999999976
mp-32022,LiMnP2O7,1.6393999999999995
mp-673849,Si6O13,0.0797
mp-765864,TiCo3O8,1.1234
mp-771469,Li2FeAsCO7,2.1987
mp-706269,MgNb5O9,0.0
mp-777305,LiFeF3,3.1206
mp-24155,ZrH2,0.0
mvc-8096,Ge2BiO6,0.0
mp-1030160,Te6Mo3WSe2,0.3620999999999999
mp-7943,LiAs,0.508
mp-1026535,Mg14NbCr,0.0
mp-773367,LiMnNiO4,0.19090000000000007
mp-1030908,LiCeMg6O8,0.0
mp-972061,YbTlHg2,0.0
mp-767216,LiMn(PO4)2,0.5891000000000002
mp-31194,Li13(Ga7Cu2)3,0.0
mp-1093689,YTlAu2,0.11610000000000033
mp-1099750,Eu2V2O5,0.0
mp-850893,Li9V12Fe7O48,0.0
mp-1921,ThTe,0.0
mp-542622,P4O7,4.2815
mp-865317,Tm2CuPt,0.0
mp-558981,SrBe2(BO3)2,5.3456
mp-1026386,Mg14TiB,0.0
mp-1038319,CaMg30AlO32,0.4589000000000016
mp-15223,Cs2NbCuSe4,1.659
mp-977388,HoMgSn,0.0
mp-28613,LiBPt3,0.0
mp-768416,BaYBr5,3.819
mp-5292,Ca(SiNi)2,0.0
mp-861668,LiV2OF5,1.8211
mvc-5274,Zn(CoO2)2,0.0
mp-1080829,Ti6Ge2B,0.0
mp-15660,Nb4C3,0.0
mp-850970,Co2O3F,0.0
mp-571419,Zr2Al4C5,0.0
mp-1034512,SrMg14CdO16,2.0974000000000004
mp-29928,Na3Li3N2,0.0
mp-1022612,Mg6ZnSn,0.0
mp-772368,Li2TiFe3O8,0.0
mp-1415,CaSe,2.0802000000000005
mvc-4198,Ca3Ti2(GeO4)3,0.0
mp-1080835,V2GaC,0.0
mp-779815,LiV4OF11,0.7389
mp-10415,Yb3(GePd)4,0.0036000000000000476
mp-1035457,NaMg14FeO16,1.6805000000000003
mp-1031975,YMg6CO8,0.0
mp-1027741,LaMg14Co,0.0
mp-776484,Li6Sn3P8O29,3.1607000000000003
mp-1023583,BaMg15,0.0
mp-780910,Li2Mn3(BO3)3,0.2126999999999999
mp-1024070,Na4Zn3S5,2.4504
mp-4941,Sr2SnO4,2.7048
mp-566321,BaVClO3,2.3881
mp-866615,CsAg2AsS3,1.6565000000000003
mp-1036401,CaMg14CoO16,0.17900000000000027
mp-550423,Ba2UCuO6,0.0
mp-765520,Li4V5O9F,1.673
mp-975577,K3La(AsO4)2,3.857
mp-693620,KCa2Be2Al(Si2O5)6,4.868799999999999
mp-541689,Na7In3Se8,1.1676
mp-1098348,NaMg30TiO32,0.0
mp-561830,Cs2CoS2,0.0
mp-1026658,KMg14Ti,0.0
mp-19880,FeTe2,0.07739999999999903
mp-685267,Cr3GaS6,0.0
mp-745114,Cd4NiH20(ClO)10,3.7564
mp-22512,Sr2In2O5,0.9985
mp-774181,NaLi5Mn2P2(CO7)2,3.6196
mp-24615,LiH4SeNO4,3.8634
mp-775007,SbP6(WO8)3,0.2910999999999999
mp-770093,Li3Fe(CuO3)2,0.07679999999999998
mp-694930,Na2FeSn(PO4)3,2.2909
mp-696360,Ca2Cu2Si3(HO3)4,0.5606999999999998
mvc-9384,PrMgV2O6,0.8948999999999998
mp-637194,Cs3Sc2Cl9,3.9353
mp-615420,U3CuO10,0.3222999999999998
mp-778417,Fe6O5F7,0.8514999999999999
mp-600067,SiO2,5.74
mp-6543,VAg(PSe3)2,0.0035000000000002807
mp-20834,CeSnPt,0.007299999999998973
mp-621132,PrInAu,0.0
mp-31628,CrReO4,0.0
mp-1073201,Mg2Si3,0.0
mp-761193,LiCu4(PO4)3,0.0
mp-850929,Li4MnF6,4.9148
mp-22345,TiCdO3,0.04389999999999983
mp-19508,SrCr(Si2O5)2,3.5010000000000003
mp-1099812,Ba2Sr2CoCu3O10,0.0
mp-776655,Ti2O3,0.0
mp-646283,As9Pb7S20,0.0
mp-542834,Ba14Na17CaN6,0.007499999999999841
mp-779720,Li5LaO4,3.9705
mp-1029293,CsVN2,0.00010000000000021103
mp-767218,Li9(NbS2)14,0.0
mp-568476,BiPd2Pb,0.0
mp-1015831,AlCo2Si,0.0
mp-1079820,K2SnO6,0.1844999999999999
mp-3451,BaVS3,0.0
mp-18422,RbLiZn2O3,1.8536
mp-1073819,MgSi,0.0
mp-677337,H12C4S3(N3Cl2)2,0.0
mp-1078712,Hf2TlC,0.0
mp-540231,Li2FeP2O7,4.441400000000002
mp-640747,Sr3Nb2CoO9,0.1984999999999999
mp-767785,Li4Mn2Cr3Sb3O16,0.3962000000000003
mp-999052,Ti2MnAl,0.051099999999999916
mp-768556,Na3BSbPO7,3.5102
mp-775439,Li2Cr3P5O18,0.845
mp-762788,LiMnP2O7,0.9768
mp-22075,In7Pt3,0.0
mp-770950,LiLa4MnO8,1.7081999999999988
mp-776800,Li4Ti3Nb2Co3O16,1.4451
mp-762162,MnVHPbO5,1.8768
mp-1055908,Mn,0.0
mp-568336,Lu2Si5Ir3,0.0
mp-1096703,NaTl2Ag,0.09250000000000023
mp-569161,K2La6OsI12,0.13890000000000047
mvc-6733,Mg(FeO2)2,1.0187000000000004
mp-11791,CeCuSe2,0.0058000000000006935
mp-601409,KVF3,2.4514
mp-769607,V7(PO4)6,0.06240000000000024
mp-32548,BiO2,0.0
mp-763904,Li3MnVP2(O4F)2,1.5363000000000002
mp-29156,NaTa3N5,0.0
mp-20465,As2Pd,0.0
mp-980664,UBiSb,0.0
mp-31773,Li2Fe2(MoO4)3,2.6963
mp-615789,Ba2(CuO2)3,0.0
mp-1028732,Te2W2SeS,0.0
mp-608516,CsGaCl4,4.4910000000000005
mp-705296,Li2CoP2O7,3.1026
mp-22570,Mg5In2,0.0
mp-1091405,TlFeS2,0.0
mp-553903,KNa9In2O8,1.7136
mp-29666,Bi2Te2Se,0.5476000000000001
mp-3846,LaBPd3,0.0
mp-18906,CrPO4,1.8465
mp-8881,AlAs,1.6831
mvc-4249,Mg3Ge3(SbO6)2,2.1558
mp-561973,K(TeO3)2,1.0307
mp-1095109,Ba2BiIrO6,0.0
mp-780134,Li4Ti3V2Cr3O16,1.1816999999999998
mp-773185,Gd2W2O9,2.8302
mp-7656,Na5GaO4,2.2018
mp-562504,Cs2GaP3O10,4.1491
mp-760060,Sb(SO4)2,0.0
mp-764107,Na4CoO4,1.2643
mp-4917,LaAsO4,3.9896
mp-541627,K3Fe(CN)6,3.591