mpid,formula,gap pbe
mp-570218,LiBeH3,4.8256
mp-11327,Rb2Se,1.7968
mp-540534,MoPO5,1.3322
mp-850233,Li2Mn3(BO3)3,0.0
mp-626268,Ba(H8O5)2,3.904
mp-865254,TbYbHg2,0.0
mp-770694,Li6Cr2O7,0.7728000000000002
mp-1095369,Sr3(GaIr)4,0.0
mp-862733,Pm2ZnSi,0.0
mp-777911,Fe6O5F7,1.4273
mvc-5706,ZnSnAsO5,1.4621999999999995
mvc-2526,Ba2AlTlCu2O7,0.0
mp-645291,As3Pb5ClO12,3.0286
mp-868928,Li6Mn9O20,0.0
mp-755128,SmTlO2,1.7431
mp-1025575,Mo(WSe3)2,1.0142999999999998
mp-763002,Fe4O3F5,1.2359000000000002
mp-781789,Li4NbIn3(PO4)6,2.6893
mp-973981,LuBrO,4.3926
mp-1025715,Te2Mo(WS2)2,0.0
mp-863672,ErMgCd2,0.0
mp-18464,Rb4GeO4,2.4863
mp-1009593,CrCoTe,0.0
mp-578609,NaTiO2,0.0
mp-12023,MnCu2SiS4,0.7928999999999995
mp-862947,Ba2BiAu,0.4229000000000003
mp-24868,Cr2CoO4,2.6268
mp-569606,Nd3MnBi5,0.0
mp-1061395,Na2O2,0.0
mp-32727,Y3Se4,0.0
mp-979046,Tm2Co12P7,0.0
mp-765234,MnF3,0.0
mp-558655,Re2PbO6,0.0
mp-631895,FePbW2,0.0
mvc-626,YTi(WO4)2,1.1366
mp-780318,LiCoOF2,0.8101999999999999
mp-767287,Li6MnCrP2(CO7)2,2.3308000000000004
mp-772667,MnH4(OF2)2,2.5561000000000003
mp-698454,DyH9C5(NO4)2,4.5207
mp-735541,NiSn2H12(OF)6,4.5576
mp-649415,KBiN(ClO)3,3.1015
mp-767036,Li2Co(CO3)2,2.4529
mp-568959,La4As3,0.0
mp-31017,Ce4B2N5,0.0
mp-2079,Rb2P3,0.7643999999999997
mp-762987,Sr20V15O49,0.0
mp-779706,AgGeO3,0.0
mp-766548,Li4Ti11O24,2.5241
mp-865663,YbLuRh2,0.0
mp-1093680,MgCrPt2,0.0
mp-4652,MnRh2Pb,0.02280000000000016
mp-25672,VPO5,1.9882
mp-1076516,Sr5Ca3Fe7CoO20,0.0
mvc-6281,Zn(CuO2)2,0.11319999999999995
mp-999054,Ti2GaCo,0.0
mp-23288,AlBr3,4.0967
mp-850448,Mn6OF11,0.4207
mp-755790,HfPbO3,2.7562000000000006
mp-571172,In2Bi,0.0
mp-505634,Cs2Te3,0.6368999999999998
mp-569711,K5Nb(CN)8,1.7548
mp-560026,Mg5B3O9F,5.118399999999999
mp-1099151,YMg14FeO16,0.0
mp-1001017,Zn(InSe2)2,0.03180000000000005
mvc-9998,CaLaCrWO6,2.1252000000000004
mp-1097324,Hf2ZnHg,0.0
mp-557022,Sb8Cl2O11,2.8915
mp-631428,TlCoW,0.0
mp-561577,Cs2Pd3S4,1.3521
mp-972471,Sm3Ho,0.0
mp-706328,Ba3DyUFeO9,1.4773
mvc-16552,Zn(Mo4O5)2,0.0
mp-779309,V4(OF3)3,1.1773
mp-579234,VP2NCl10O,1.7981
mp-13525,HoInIr,0.0
mp-9027,TiS2,0.0
mp-556996,K2LiAlF6,7.2639
mp-18762,Na4CoO3,1.2688
mvc-6883,ZnFe(SiO3)2,3.0196
mp-1099932,KNa7V6Cr2O24,0.0
mp-554083,BaZnAs2O7,2.8585
mp-703256,NaCoP2HO7,3.0988000000000007
mp-7432,Sr(CdSb)2,0.0
mp-565747,Ni2P2O7,3.7913
mp-37496,NaCe5S8,0.0049999999999998926
mp-782688,Li2FeF4,0.0
mp-19381,DyCrO3,2.5578000000000003
mp-764689,VOF,1.0086
mp-1029838,SrCrN2,0.0
mp-777906,CoPO4,0.9531
mp-1591,Al4C3,1.3154000000000003
mp-22008,EuIn4Pd,0.007500000000000284
mp-1036912,Mg30CoCO32,2.7642999999999995
mp-585419,CoPO4,0.8085
mp-12910,GeS,0.5581
mp-2118,RhN3,0.0
mp-569227,NpAl2Pd5,0.0
mp-997510,Fe4OF7,1.7938999999999998
mp-565711,P2O2F3,5.3101
mp-764194,Na9Fe3P8O29,2.4658
mp-1848,Te2Ru,0.11129999999999997
mp-570700,Hf3Tl2(CuSe4)2,0.5087000000000002
mp-8577,Sc3GaC,0.0
mp-1096410,LaAg2Hg,0.07159999999999966
mvc-7955,ZnCu3(BiO3)4,0.0
mp-756998,CdH2(SO4)2,4.189
mp-541272,LiGe2(PO4)3,3.385
mp-19181,BaHo2NiO5,2.2548000000000004
mp-542654,RbIn3S5,1.1735000000000002
mp-1021465,Na2ZnSe2,1.7973
mp-778798,Li32Mn13Cr3O48,1.2401000000000002
mp-774382,Li2MnF4,3.8068
mp-1096706,Sr2PdAu,0.0
mvc-980,MgSnP2O7,3.7419
mp-560587,Rb2Sb8O13,2.3306
mp-771607,Li7Cr5O12,0.4918
mp-769670,CrIrO4,0.0
mp-1990,Mg3As2,1.431
mp-733968,BaCaP2(HO4)2,5.327000000000001
mp-1039728,NaHfMg30O31,0.043699999999999406
mp-1077442,CeAu2,0.0
mp-973835,PdN,0.0
mp-674940,La12Au3I13,0.0
mp-767053,Li2Co(CO3)2,2.3683
mp-568924,PrB2Rh2C,0.0
mp-780127,Li9Mn2P4HO18,1.0722
mp-997006,AgPtO2,0.3843000000000001
mp-559093,Tl2BiP2S7,2.1261000000000005
mp-19360,LuCrO4,0.31000000000000005
mp-1037628,NaMg30FeO32,0.9613000000000004
mp-1098494,NaHfMg30O31,0.0
mp-1080251,CeSe2,0.7313000000000001
mp-765145,Na9(WO3)13,0.0
mp-850889,Li3CrP2O9,0.0
mp-572726,SbSeCl7O,1.945
mp-976600,LiHf2Tc,0.0
mp-976830,Ni3Pb,0.0
mp-763391,Li2Co(SiO3)2,2.9727
mp-567055,CuMoO4,0.5475000000000001
mvc-8799,Zn(SbO2)4,0.0
mp-1093892,TaInOs2,0.0
mp-582657,Ti4Te9I4O,0.39780000000000015
mp-542147,Sn(Mo2O3)2,0.018799999999999702
mp-22594,Ba2LuIrO6,0.004900000000000127
mp-590,NiAs,0.0
mp-976425,Nd2Mg,0.0
mp-653930,CuAs2Pb8Cl5O9,1.5363999999999995
mp-907862,UTe2,0.0
mp-1034688,HfMg14NiO16,0.0
mp-29844,Tb(AlCl4)3,4.2153
mp-555390,TcO3F,2.4445
mp-1019747,K2Ca3Si3O10,4.1202000000000005
mp-890,NdIr2,0.0
mp-764870,Li3MnFeCo(PO4)3,2.4314
mp-637929,Mn2SnC10(BrO5)2,2.4829
mp-1094990,HfMg,0.0
mp-556017,Th2P2O9,5.0734
mvc-12132,CaTiO2,0.0
mp-1097246,Sr2ZnIn,0.0
mp-560627,TeMo5O16,1.2441
mp-561708,CoSnC4Cl3O4,3.0334000000000003
mp-1074465,Mg4Si3,0.0
mp-30713,Ho2Zn17,0.0
mp-566991,La4Cu3MoO12,0.22529999999999986
mp-14345,BaZnP2O7,4.3393
mp-14374,Na3Rh(NO2)6,2.6311
mvc-5747,MgMnAsO5,1.3572
mvc-9752,Zn(AgO2)2,0.0
mp-758310,Li3Ti2(PO4)3,0.0
mp-866688,Cs4P2PdSe8,1.4224
mp-760440,Sr2U4O11,0.0
mp-1028202,Mg14AlZn,0.0
mp-764373,LiFeF3,3.0657
mp-754005,Mg(CO2)2,3.4504
mp-867821,TaTiMn2,0.0
mp-863670,Pm2CuRh,0.0
mp-1056486,Ni,0.0
mp-504427,Ti3PbO7,1.9724
mp-972517,SmY3,0.0
mp-621348,TiInAu2,0.0
mp-1019324,TbTe2,0.0
mp-561488,SiO2,2.7733
mp-865358,DySnRu2,0.0
mp-769428,Li10Si2NiO10,2.5404
mp-763461,LiP3(WO6)2,2.6345
mp-1023498,KMg15,0.0
mp-560830,Nd3Si2ClO8,5.2091
mp-1076887,K5Na3TaNb7O20,0.0
mp-761634,Li2MnCr(PO4)2,2.2089000000000003
mvc-691,AlTe(WO4)2,0.3343999999999996
mp-762776,Li4Ni5Sn(PO4)6,3.1782
mp-775498,LiNi(SO4)2,0.0
mp-763969,MnOF,0.16690000000000005
mp-978833,SmYIn2,0.0
mp-554328,NaSO4,3.5176000000000003
mp-504605,Na2SiH16O11,4.4711
mp-768457,Sb2(SO4)3,3.6256
mp-865352,Mg17Al11Pd,0.0
mvc-8979,LaZn(FeO3)2,0.0
mp-1018800,MnCuAs,0.0
mp-6200,Ba2NdRuO6,0.31579999999999986
mp-609284,NaCo(CO)4,3.7329
mp-1033843,Mg14CrBiO16,0.0
mp-1097522,Be2NiPd,0.0
mvc-15239,AlCuO3,0.0
mp-1072399,Be5Pt,0.09529999999999994
mp-850905,Li4Cr3(FeO4)3,0.0
mvc-13160,Ba6YTl3(Cu2O7)3,0.0
mp-9437,NbFeSb,0.5137999999999998
mp-1016631,BaMg6W,0.0
mp-1097013,KGaTe2,1.3195
mp-1079887,TbFeAsO,0.0
mp-850396,Li2Mn3(BO3)3,0.0
mp-24856,BaPr(CoO3)2,0.17090000000000005
mp-1017221,Mg6CdC,0.0
mp-1096046,TiGaTc2,0.0
mp-542117,Cd3Se3O10,3.068
mp-1474,Re3P4,0.0
mp-542727,Cr2(Co7B2)3,0.014599999999999724
mp-1036860,HfMg30CoO32,0.0017999999999993575
mp-1018019,PbS,0.008399999999999963
mp-765070,Li5CoO4,1.6006000000000002
mp-20469,YbIn3,0.0
mp-1094054,Sr2FeCoO6,0.0
mp-865213,Ba8Bi4H2O,0.5637000000000003
mp-559716,FeS4N4Cl5,1.0118
mp-556108,DyTiClO3,3.1638
mp-1030710,NaMg6WO8,1.7015000000000002
mp-865526,TmSb(PbO3)2,2.5855
mp-637226,Fe4P2O9,2.8438000000000003
mp-557780,CsSi2HO5,4.8193
mp-773307,Co4NiO8,0.0
mvc-13793,CaCrO2,0.8201
mp-1097236,Li2SnPb,0.0
mp-771843,Mn3(PO4)2,2.8782000000000005
mp-625959,Ta2H4O7,3.8863
mp-21674,Pu5Ir4,0.0
mp-1094156,LiMg2,0.0
mp-20494,LaAs,0.0
mp-972170,TbY3,0.0
mp-735556,Na2CoH8(CO5)2,2.955
mp-765534,Li2Ni3O3F2,2.204
mp-561051,Rb2Sb4S7,1.834
mp-565651,Pr2Mo4O15,3.1862
mp-755205,Zr2N2O,1.6914999999999996
mp-510708,LiFe(SiO3)2,2.7315000000000005
mp-22044,Sm2Ge2Ru,0.0
mp-569298,Ca(CoAs)2,0.0
mp-554294,Na7SnS3(O4F)3,4.9906000000000015
mp-775261,Li2MnFe(BO3)2,2.7141
mp-1099238,HfMg6FeO8,0.0
mp-696075,Ca2H2S2O9,5.1689
mp-1079335,Er(NiB)2,0.0
mp-620294,MnNb2Zn2O8,2.4815
mvc-16560,Ca2CoWO6,1.9988
mp-555283,V3S,0.0
mp-29564,Ba2Mg3Si4,0.0
mp-600219,MnH12C2(NCl2)2,1.5011
mp-559385,SrHo2O4,3.7325
mp-780197,Li2Mn3(BO3)3,0.0
mp-15843,Ge9Pd25,0.0
mp-1077978,Ti3Se4,0.0
mp-1096576,Al2CuTc,0.0
mp-645208,Sr2Co2O5,0.0
mp-763457,LiP2WO7,3.8285
mp-1094254,Zr5Sn,0.0
mp-752428,Rb2PrO3,0.0
mp-767232,LiV2(PO4)2,0.5545000000000004
mp-1075157,Mg3Si4,0.0
mp-30175,Ca(AlZn)2,0.0
mp-1096317,Mg2GaHg,0.06390000000000029
mp-770105,Li5MnO4,1.0329
mp-1032165,Mg6TiCoO8,0.0
mp-1886,TbTl3,0.0
mp-8390,LiYbO2,0.0
mp-1096149,Y2ZnRh,0.0
mp-569094,P4Se3,2.1677
mp-565535,NdMnO3,0.0
mp-560134,Cs2V(PO4)2,2.9681
mp-862816,PaGe3,0.0
mp-558350,Zn2TeBr2O3,3.2928
mp-755389,CaEuO2,0.0
mp-685070,Zr19O40,0.03730000000000011
mp-30432,Ba(RhPb2)3,0.0
mp-985637,Li2Si4O7,3.0397
mp-20114,TmMnGe,0.020100000000000232
mp-568232,Ti6Sn5,0.0
mp-680111,CdI2,2.3667
mp-771454,Na3CrAsCO7,1.5635000000000003
mp-757434,LiSi6Bi9O26,2.8648
mp-764872,Li5Fe7O3F13,2.8756
mp-568508,CsRb(MnCl3)2,1.4307
mp-1019575,Ca4Al6SO16,4.4190000000000005
mp-542573,ThB4,0.0
mp-753923,Cs3HoO3,2.1915
mp-32927,Tb2O3,0.0
mp-18474,Ag8GeSe6,0.0
mp-3273,Si5P6O25,5.5931
mp-4561,UAl3Pd2,0.0010999999999992127
mp-780061,Hf2N2O,1.9270000000000005
mp-1097260,Y2PdRh,0.0
mp-973796,PmHo,0.0
mp-13599,NaSn2F5,3.7838
mp-767849,Li11Mn12(BO3)12,0.007400000000000073
mp-764406,Li2Fe3CuO8,0.0
mp-761539,LiMnPO4,2.9955
mp-676295,Li3MnP2,0.0
mp-570089,CdI2,2.3953
mp-556264,KRb2CrF6,4.1253
mp-8864,Li(Co3P2)2,0.0
mp-703302,Cd9(InSe2)20,0.0
mp-4937,SNF,3.4931
mp-570936,K(SnAu)3,0.0
mp-504259,Mo4P9O32,0.0031999999999998696
mp-1094857,Ca3Mg,0.0
mp-14399,LiAlSiO4,4.8483
mp-760467,ThU8O18,0.0
mp-743198,Mn2FeAg2(PO4)3,0.0
mp-765295,LiV6F13,1.9781
mp-765710,Li4Fe5Ni(PO4)6,1.5479999999999996
mp-697734,MoP4O13,1.1881
mp-781976,Li2CuF5,0.4593999999999998
mp-11369,ErHg2,0.0
mp-21289,TiZn3,0.0
mvc-3695,Si3(TeO6)2,2.7839
mp-697146,Zn(HO)2,2.8582
mp-764050,Li3CoOF3,0.10860000000000004
mp-1019725,CsY(PO3)4,5.5193
mp-1017252,Mg6GaC,0.0
mp-27252,TlCdI3,2.1764
mp-18940,Sr2NiMoO6,2.3109
mp-17895,K3BeF5,6.2164
mp-614013,CsSnI3,0.5064000000000002
mp-979413,W3C,0.0
mp-773457,Li9Fe3(WO4)7,2.1745
mp-2529,PrRh2,0.0
mp-866022,CdPt3,0.0
mp-14485,LaTa7O19,3.1166
mp-705120,Co6Te5O16,2.1733
mvc-9744,CaTi2O4,0.0
mp-722348,RbP(HO2)2,4.4694
mp-777471,Li2FeF4,3.587
mp-19278,BaCoP2O7,3.0868
mp-632250,H2,7.3713
mp-764693,LiFe2(BO3)2,1.6688
mp-626216,Sr(H8O5)2,3.2933
mp-22481,KIn4,0.0
mp-25690,Ca(FeO2)2,1.7306
mp-28377,CsGeI3,1.589
mp-1021353,KLiMg6,0.0
mp-1032362,Mg6CdCuO8,0.0
mp-974045,La11In9Ni4,0.0
mp-555458,Ba4Fe2S4I5,0.0
mp-13992,Cs2Pt3S4,1.6488
mp-762537,LiMn6O12,0.0
mvc-12765,Ca3Fe2(ReO6)2,0.0
mp-6853,Ca3TaGa3(SiO7)2,3.9122
mvc-11418,V4ZnS8,0.0
mp-561050,BaCaSiO4,4.3673
mp-991142,NdNi5,0.0
mp-766139,Li2V2F7,0.3709999999999999
mp-540955,LuH18C3S3(O2F)9,5.7735
mp-862600,Be2PtRh,0.0
mp-1078944,PbS,1.4659
mp-674338,K16Zr12Se61,1.3747
mp-541145,Ge2C2(SF2)3,3.3624
mp-767158,Mn2CrO6,0.7083999999999999
mp-1018818,NdTeCl,0.4199999999999999
mp-764679,LiFe2(BO3)2,1.696
mp-695772,Mo(PO3)4,1.8372
mp-695998,K2ZnH4,4.118
mp-998864,Br,0.0
mp-686467,Sr14La6Mg3Ti17O60,1.8643
mp-35835,Ag(AuS)2,0.0
mp-780482,LiVP2HO8,1.3679
mp-771924,Cr3Co5O16,0.2254999999999998
mp-7116,Nb3CoS6,0.0
mp-542839,TlSbAu,0.0
mp-1018089,CaZnSe2,1.5191
mp-570118,YbTlSe2,0.0
mp-975463,RbAcO3,0.0
mp-557614,Cd(PO3)2,3.7122
mp-1021156,LaMg6Sb,0.0
mp-978508,Si3Os,0.0
mp-752684,BaTm2O4,2.8879
mp-6192,Ba2DySbO6,3.5914
mp-17812,Sm2SiTeO4,1.7845000000000004
mp-643026,SrH4(ClO)2,4.9993
mp-771963,Ba2LaCl7,3.6471
mp-744583,Ba4La6Mn5In5O30,0.14010000000000036
mp-559513,K2NClO3,4.0449
mp-1025685,Te4Mo3Se2,0.18710000000000004
mp-603633,SnP4H8N2O13,3.7786
mp-763227,LiMnF4,1.2802999999999998
mp-743680,K5HfIn(MoO4)6,3.7106
mp-22595,UAsSe,0.0
mp-971767,ZnHg3,0.0
mp-1077695,Sr3Ca5TiMn7O20,0.0
mp-22558,TiSi,0.0
mp-850232,Na(FeO2)2,0.0
mp-561078,Rb2CoF6,1.179
mp-864607,ZrCdPd2,0.0
mvc-5018,Ca2TaWO6,2.2679
mp-707310,K2Zn3P4(HO3)4,4.9236
mp-735536,BaV2H2(Se2O7)2,2.4223
mp-23717,Ca2MgP2(H2O5)2,5.3863
mp-1094439,MgZn2,0.0
mp-23420,Ge19(PI)4,1.0766000000000004
mp-16984,Sr3MgRhO6,0.0
mp-25505,K2MgCr2(H2O5)2,2.9021
mp-27975,NdBr3,3.0443
mp-25525,FeMoClO4,2.2037
mp-18855,Co2Te3O8,2.6041
mp-556031,Sn2P2O7,3.6278
mp-1038312,Mg30AlZnO32,0.3565999999999985
mp-757158,LiTa3O8,2.2078
mp-558845,PH10C3N2O4F,5.1415
mp-540481,Li2CrP2O7,3.6535
mp-30578,DyCu5,0.0
mp-561187,NdGa3(BO3)4,4.3389999999999995
mvc-16336,Al(NiO2)3,0.0
mp-867223,LiGa2Ni,0.0
mp-8716,K2MnSe2,1.0289
mp-631386,Mg2NbFe,0.0
mp-566625,K4V5CuClO15,0.1913
mp-557914,DyTaO4,4.1277
mp-7489,CsUF6,0.8853000000000001
mp-772801,LuBiO3,2.3018000000000005
mp-558295,CS3N5Cl,2.2804
mp-771558,Na3CoPCO7,2.8453
mp-773375,Li2V3O7,2.4621
mvc-10159,CaCr2O4,0.6429
mp-776752,Li4Mn2Fe3Sb(PO4)6,1.1098999999999997
mp-1028514,MoWSe4,0.9425
mp-4612,TiCo2Ge,0.0
mp-770854,Li10Fe3Sb7O24,1.0320999999999998
mp-30069,CuNi2Sb,0.0
mp-778621,Li32Ti3Cr13O48,1.0616
mp-767410,Bi6P2O15,0.0
mvc-5808,CrIrO6,0.0
mp-1078987,TbInCo2,0.0
mp-20970,NaMnSb,0.015500000000000291
mp-1008394,Cl2,2.2452
mp-18937,V2O3,0.5414000000000003
mp-33797,Sr(RuO3)2,0.0
mp-673692,Nd10Se19,0.6395999999999997
mp-1094389,Y2Mg,0.0
mp-775383,Li4V3P8O29,1.1248
mp-681911,Sm4AlSi5(NO)7,1.5404
mp-655586,NaClO3,0.7853000000000001
mp-761592,Li3Fe2CoO6,0.4305999999999997
mvc-9485,Y4Mn13Si2(SbO14)2,0.9708
mp-16972,CsErSiS4,3.0331
mp-1095766,SrMgCd2,0.2514000000000001
mp-772004,Li3Co3TeO8,0.7909000000000002
mp-560947,Ag4S(NO)2,0.6701999999999999
mp-1074637,Mg2Si,0.0
mp-1091394,Ba2NaIO6,2.2172999999999994
mp-648163,ReC5ClO5,2.577
mp-686377,Lu2FeS4,0.0
mp-850955,LiFeP3(H7O8)2,3.9341
mp-644424,Sr2CoO3,0.5811
mp-705796,Na10Mn4O9,0.4931999999999999
mvc-12116,Mn2ZnO4,0.0
mp-851295,Fe3Ni2P6WO24,2.5315000000000003
mp-560660,Ba4Eu4Zn3PtO15,0.0
mp-1093545,TlAgPd2,0.3235000000000001
mp-1073686,MgSi,0.0
mp-8869,Y2S2O,2.5515000000000003
mp-770984,Li3MnV(PO4)3,0.001400000000000068
mp-31466,Er5Bi3,0.0
mp-20642,NdMn12,0.0046999999999997035
mvc-8656,MgMn(Si2O5)2,3.0860000000000003
mvc-5928,WO2,1.7347
mvc-10609,Mn3P3O13,0.0
mp-677311,Re3Pb3O10,0.0
mp-1095674,Cs2LiBr3,4.3309
mp-1078721,InPd3,0.0
mp-565313,Na2TbMoPO8,4.2082000000000015
mp-2267,HoB2,0.0
mp-625513,Te(HO2)2,1.7656
mp-1013899,LiFe3P3O13,0.0
mp-1022581,CeMg6Zr,0.0
mp-1022605,Mg6FeNi,0.0
mp-4690,K3TaO8,2.9894
mvc-2260,Cr9O13,0.6852999999999998
mp-757588,Y11Ta5O28,0.3796
mp-581857,KBiF4,3.2279
mp-999498,N2,3.9594
mp-626103,Al(HO)3,4.9129000000000005
mp-505660,Cs2KFe(CN)6,3.621
mp-738686,SbH24C6(NCl2)3,3.5956
mp-754557,EuY2O4,0.26319999999999943
mp-774265,NaLi2MnPCO7,3.4913
mp-1094970,Mg3Al,0.0
mp-669546,AlPd,0.0
mp-867867,SmMgAu2,0.0
mp-767327,Li4Mn3Sn(PO4)4,3.2141
mp-504102,Li(NiO2)2,0.008399999999999963
mp-7027,InBO3,2.6518
mp-769711,Li3Cr3CoO8,0.3769
mp-568735,SiC,1.998
mp-703461,GeH8N2OF6,5.6075
mp-8432,CaCuP,0.0
mp-35929,LiMnO2,1.0422000000000002
mp-763393,KFeP4(H2O7)2,3.0577
mp-770957,Be(CoO2)2,1.9653
mp-14511,NaAlGeO4,3.7388
mp-2402,NaSi,1.1326
mp-30519,Tl3PbCl5,3.2824000000000004
mp-865794,LaYbHg2,0.0
mp-764439,Li2MgCo13O28,0.9273
mp-973601,HgI3,0.0
mp-532220,Dy(CrS2)3,0.2831000000000001
mp-1098602,HfMg30GaO32,0.0
mp-698114,Ba2AlH7,2.96
mp-1026720,CeMg14Bi,0.0
mp-669434,BiTeIO3,0.0
mp-761541,LiNiPO4,2.8639
mp-989547,Rb2NaInCl6,3.0533
mp-773243,Li4VFe3O8,1.3735000000000002
mp-744458,MnPH2(CO)4,3.1559
mp-1020595,Rb8PO3,0.0
mp-1026744,CeMg14Nb,0.0
mp-622108,Ba2TmCu3O7,0.0
mp-773255,Li2CrNiO4,0.0
mp-977396,TbMgRh2,0.0
mp-1093859,TlIn2Bi,0.2399999999999997
mp-31189,DyBe13,0.0
mp-766719,CoNi(PO4)2,0.012399999999999968
mp-780406,Lu4Al2O9,4.1419
mp-1018808,MgCoGe,0.0
mp-766143,V4OF11,1.5057
mp-1095907,HfCrAu2,0.02870000000000017
mp-1094910,Ce3Mg,0.0
mp-585206,CoP2O7,0.0
mp-632442,Al4C3,0.0
mp-865421,UGaTc2,0.0
mp-15821,LiNdGe,0.0
mp-540761,K2MnO4,0.5473
mp-559296,AsS4N4F5,1.7121
mp-567457,Ba3WCl2O5,3.9374
mp-1078576,Cu3N,0.0
mvc-6394,CrO2,0.0
mp-1033378,Mg6CrBiO8,0.0
mp-697977,Sr2AlH7,3.1294000000000004
mp-19265,DyNiO3,0.03620000000000001
mp-865909,Yb2HgGe,0.0
mp-554359,Cs2Si3SnO9,3.7921
mvc-14765,Ca2V3O8,1.4929
mp-570904,GaNi2,0.0
mp-1099860,K5Na3Ta6Nb2O24,1.7476999999999998
mp-20551,GaCo2Ni,0.002699999999999925
mp-28971,Rb2Si2O5,4.0396
mp-1028343,Mg14NiC,0.0
mp-776819,LiFeF5,1.1002999999999998
mp-25540,MnH4(CO3)2,2.4467
mp-554650,LaH6(ClO3)3,2.5974000000000004
mp-559094,Cu2H3ClO3,0.27270000000000016
mp-652479,LiZnPO4,4.1896
mp-866065,NdMgCd2,0.0
mp-865123,MgGaPd2,0.0
mp-29752,NiGePt2,0.04479999999999952
mp-767452,Mg3Mn4O7,0.5658000000000003
mp-18490,Sr2SmNb(CuO4)2,0.0
mp-1018154,Hf2Hg,0.0
mp-643727,HPbBrO,3.1006
mp-1027918,Mg14ZrSn,0.0
mvc-1289,CrP2O7,0.0
mp-867756,Sc2CuAu,0.0
mp-20228,MnGaNi2,0.0
mp-5678,ErB2Rh3,0.0
mp-25622,VO2,0.0
mp-555332,BaCu(SiO3)2,0.4716
mp-773165,Li4Co5CuO12,0.07779999999999987
mp-777280,Li3Mn(NiO3)2,0.0
mp-1079388,Nd(BRu)2,0.0
mp-24180,RbH6C2S2NO4,5.1913
mp-558940,Pr3S3N,1.4853999999999998
mp-567164,BRh,0.0
mp-991624,CeAl3Pd2,0.0
mp-12628,Rb,0.0
mvc-9059,ZnAgBiO5,0.3505999999999998
mvc-13364,CaCr2O6,0.3928999999999998
mvc-3951,Mg2Fe2O5,1.4261
mp-23015,Cs3Mo2Br9,1.0217
mp-782035,Al2O3,4.662399999999999
mp-28116,TiCl2,0.0
mp-744024,K2MnH8(SO6)2,4.6128
mp-624187,Y5Bi3,0.0
mp-961649,ZrFeTe,1.155800000000001
mp-1012835,SmCu(WO4)2,1.4499000000000004
mp-1093782,Y2CdHg,0.13929999999999998
mp-1018105,Zr2Zn,0.0
mp-7693,BaTm2F8,7.2347
mp-764055,LiCo5O7F,0.33919999999999995
mp-19997,EuIn2Ni,0.01810000000000045
mp-560224,H6NO2F,3.4776
mp-998543,CaTcO3,0.0
mp-1096800,LaScO3,2.8130000000000006
mp-891,TaNi3,0.039700000000000735
mp-867163,Sr2AgPt,0.0
mp-565875,LiCoF4,1.9622
mp-766328,Ag7Sb9O25,0.3775000000000004
mp-776780,Li4Ti3Cr3(SnO8)2,0.0
mp-6138,Na2TiSiO5,2.9882
mp-16225,Y3Si3Rh,0.0016999999999995907
mvc-10917,MnP2O7,0.2191
mp-5306,Nb4CrS8,0.0
mp-1096579,KBaAu2,0.1857
mp-561462,Ba2Nd2Si4O13,5.046200000000002
mp-540311,Li3V(PO4)2,2.1592
mp-561081,CuH10C2(NO)8,0.8346000000000001
mp-1031931,YMg6BO8,0.17929999999999954
mp-870,TlN3,1.7592
mp-752411,Tm2Pb2O7,0.9136999999999996
mp-607310,TlFeO2,1.6176
mp-20083,ScCuSi,0.0
mp-763944,Li5CoOF5,0.06909999999999973
mp-19928,Hf2CuSb3,0.03200000000000003
mp-1027091,MoW(SeS)2,0.6276999999999999
mp-1007652,InAs,0.031600000000000066
mvc-681,AlTe(WO4)2,0.12369999999999992
mp-763919,LiCo2OF3,1.8332
mp-779074,Li8Mn7Fe(BO3)8,2.8964
mp-733936,Cs2MgH8(CO5)2,4.6538
mp-697834,Ca4La4Mn7NiO24,0.09260000000000004
mp-1095422,YbBPt2,0.0
mp-1097460,LiScAg2,0.14900000000000002
mp-24999,YFeO3,1.6969999999999996
mp-776740,Li2MnWO6,1.1686
mp-1029550,Ca2CrN3,0.0
mp-866203,AcYbHg2,0.0
mp-1028912,Te2W2SeS,0.0
mp-771677,MnV4CrO12,0.20690000000000008
mp-1025896,Mo2W(SeS2)2,0.5867
mp-673678,Ba2In2O5,0.0
mp-694868,Rb2ZrFe(PO4)3,2.4218
mp-641683,Eu2Ir2O7,0.0
mp-582042,CdI2,2.4223
mp-974467,Ru3Cl,0.0
mp-767639,Li4Mn3(BO3)4,0.6554000000000002
mp-1097104,Be2CoAu,0.0
mp-761498,Li6V3P8O29,1.463
mp-778799,Nb3P6WO24,1.0375
mp-865538,Ti2RePd,0.0
mp-5881,CoSbS,0.3662000000000001
mp-23282,ZrI3,0.0
mp-675083,Li2MnCl4,1.8782
mp-709066,Rb4LiH3(SO4)4,5.0068
mp-771368,Mn2(SO4)3,0.6132000000000001
mp-1038657,SrMg30BiO32,0.0
mp-765157,LiVF3,2.426
mp-559703,BaLa2Te5O14,3.2283
mp-32332,LiNi4(PO4)3,3.685200000000002
mp-768453,Lu2(SO4)3,5.9635
mp-991664,MnCo2Ge,0.0
mp-3196,NdGaO3,3.4529
mp-1025208,Cs2PuO4,0.0
mp-1009818,CN2,0.13470000000000049
mvc-9232,ZnFeBiO5,0.14090000000000005
mvc-10424,BaCaSbF7,4.388999999999999
mp-19249,YbNiO3,0.0
mp-998919,TlCdTe2,0.0
mp-696590,TiH8(NF3)2,4.7167
mp-531991,La6Zr8F47,0.0002999999999993008
mp-782663,Co3OF5,0.13179999999999992
mp-554562,Ti2Cu9(B3O11)2,0.11689999999999978
mvc-14247,Ca2FeRhO6,0.056500000000000224
mp-560220,Na2ZnFeF7,2.9496
mp-770636,Li4V3Co2Sb3O16,0.05149999999999988
mp-1030616,Te4Mo3WSe4,0.06709999999999994
mp-4871,ErP5O14,5.2303
mp-21433,TbTiGe,0.0
mp-21360,NdInCu2,0.02679999999999972
mp-604965,Al4Co(BO5)2,2.855700000000001
mp-27623,Na6PbO4,1.3501000000000003
mp-973092,ScCu3,0.0
mp-861574,LiMnNbO4,2.7797
mvc-709,AlBi(WO4)2,2.3077
mp-1071208,LaAl2BOs2,0.0
mp-772372,Sm2WO6,3.5725
mp-532273,Ba2(Mo2S3)3,0.6698000000000004
mp-17674,SrC10,0.0
mp-772440,Li2Mn(BO2)5,1.2029
mp-555234,RbSbBrF3,3.7542
mp-777499,MnOF,0.0
mp-1096838,Ba(AgO)2,1.7092
mp-1100888,Zn(Fe2O3)4,0.3636999999999997
mvc-12905,FeO2,0.0
mvc-5383,CaTiAsO5,1.8911
mp-631498,BaMgOs2,0.0
mp-677617,KMgP2H5O9,2.6875
mp-568654,PrAg2,0.0
mp-774155,Li2FeO3,0.0965999999999998
mp-1029650,Na15Re7N19,0.0
mp-763911,Li7Fe4NiO12,0.0
mp-22556,Tm3TlC,0.013499999999999623
mp-8355,KAlSiO4,4.5002
mvc-9921,MgCr2O4,1.1486999999999998
mp-556283,Na2TiSi4O11,2.7322999999999995
mp-1095871,TaBe2Os,0.15050000000000008
mp-1026833,KMg14C,0.0
mp-778169,LiCu2(SO4)3,0.0
mp-2213,FeNi,0.004300000000000637
mp-18983,ErNiO3,0.05570000000000031
mp-20444,GdIn2Rh,0.0054999999999996154
mp-998899,YN,0.007600000000000051
mp-554529,Ba2TiO4,4.2635
mp-600003,SiO2,5.4596
mvc-4633,Al(FeO2)2,0.0
mp-542791,ZrNCl,1.7226999999999997
mp-863250,TaMn2Ge,0.0
mp-767929,Li3VSi2O7,2.1006
mp-863870,Li3V3P8O29,0.8785000000000001