mpid,formula,gap pbe
mp-773469,Li4Mn5Te3O16,0.0
mp-1076900,CeS,0.0
mp-865779,Ga2CoRu,0.0
mp-6498,CoCu2GeS4,0.0
mp-1080213,CaMn4O8,0.3341999999999996
mp-1096951,CrN2,0.17890000000000006
mp-1094871,Ce5Mg,0.0
mp-850445,Na3Zn4As3H12O19,2.9931
mvc-10189,Zn(MoO2)2,1.0957999999999997
mp-29135,Zr6CoAs2,0.0
mvc-6352,Ti3Zn3(AsO4)4,0.20209999999999967
mp-1291,ErIn3,0.2286000000000001
mp-988939,AlAs,0.0
mp-29970,Cs3Sb5O14,0.9143
mp-974739,Rb3Tl,0.0
mp-625723,MoH4O5,2.3239
mp-705299,Li2FeP2O7,4.1959
mp-684786,K2Ba6Yb3Bi5O24,0.0
mp-752496,TiOF,0.0
mp-1027955,LiMg14Zn,0.0
mp-703393,PH8SN3O,3.4468
mp-504820,VCl3O,2.8945
mp-769908,Li2Mn3CoO8,0.6454
mp-1080469,HfCuGe2,0.0
mp-31440,LuZrSb,0.0
mvc-15580,MgWO2,0.0
mp-7113,CrAuS2,0.7023999999999999
mp-6191,CeB2Rh2C,0.0
mp-570619,NdSbPd,0.0
mp-1079841,Pr(GePt)2,0.0
mp-1080481,Sb(Cl3O)2,0.0
mvc-10184,Mn2ZnO4,0.0
mvc-8371,Co(GeO3)2,0.5783
mp-561282,CoTeO3,2.1368
mp-644302,NaHSeO4,3.4354
mp-21163,SiPt3,0.0901999999999994
mp-850073,Li5Mn6(BO3)6,0.0
mp-982018,Ho3Sb,0.0
mp-7247,CeZn3Cu2,0.0
mp-707754,CaH2I2O7,3.6191
mp-976053,Ge3Te,0.0
mp-604245,BeH8(NF2)2,6.5452
mp-31594,LiCoPO4,2.6711
mp-1096329,Ag2PdAu,0.0
mp-25695,RbMnP3HO10,0.8251999999999999
mp-1079180,HoPt,0.0
mvc-8395,CaFe2O5,0.0
mp-1025082,LaSbPd,0.0
mp-764660,Li3Fe8(BO3)8,1.6402
mp-1095760,MnGaCu2,0.0
mp-782658,V6O5F19,2.0247
mp-1038735,CsMg30BiO32,1.2679
mp-8469,Li8IrO6,0.0
mp-758894,Li2Ti(TeO4)3,1.5618000000000003
mp-560127,K2MnF6,3.1934
mp-567690,TbMg4Cu,0.0
mp-570848,HgCN2,1.8714
mp-1032787,YMg6CoO8,0.0
mvc-10218,MgSb4O9,0.0
mp-989461,B2(CN2)3,2.0875000000000004
mp-1039535,Ce2Mg,0.0
mp-1075966,Sr2Ca2Fe3CoO12,0.0
mp-1059094,GaAs,0.0
mvc-10695,Zn(SbO2)4,0.0
mp-771406,Na2MnSiCO7,1.0701
mp-1019738,BaEu2O4,0.0
mp-761765,Li3Mn3SiO8,0.9150000000000004
mp-1036804,Mg30TiVO32,0.11240000000000094
mp-5560,Cd3(BO3)2,1.4544
mp-974883,Rb3Na,0.0
mp-510126,Ce3Ni2Sn7,0.0015999999999998238
mp-20004,Zr2InC,0.0
mp-30682,ZrGa,0.0
mp-1026983,Te2Mo2SeS,0.10150000000000016
mp-777423,Na6Ti2O7,3.6309
mp-19021,BaCo2(PO4)2,2.2292
mp-631374,TiTl2W,0.0
mp-30433,BaSn3Pt,0.0
mvc-1347,BaNi4O7,0.9855999999999998
mp-21325,KO2,0.002899999999999986
mp-850911,Li5Ti3V2(PO4)6,0.19599999999999973
mp-782694,Mn3(OF2)2,0.0019000000000000128
mp-992015,TbNi5,0.0
mp-984552,BeZnO3,0.0
mp-776888,Ti3Mn2Nb(PO4)6,0.0041999999999999815
mp-570292,La7Os4C9,0.0
mp-819,HfCr2,0.0
mp-865880,Yb(Mg4Al3)4,0.0
mp-542437,Gd2Zn17,0.038799999999999724
mp-1094805,Ce2Mg,0.0
mp-862316,LiBePt2,0.0
mp-574235,Yb(NiGe)2,0.0
mp-1023937,WS2,1.8095
mp-29052,Cd(W3Br7)2,2.0397
mp-4767,Ce(SiOs)2,0.0
mp-1027672,MoWSe3S,0.8466
mp-1080515,Nd(BOs)2,0.0
mp-16791,KC10,0.6508000000000003
mp-3740,TiNi2Sn,0.0235000000000003
mp-579296,Al2(MoO4)3,3.783
mp-1022098,Mg6CuW,0.0
mp-774547,Er2GeO5,3.8644
mp-555165,SiO2,5.6892
mp-780480,Li11V6O5F19,0.8372000000000002
mp-32544,Ti9O8,0.0
mp-567915,La3MnBi5,0.0
mp-684036,Ba3Gd2(PS4)4,1.4528000000000003
mp-1094574,LiMg2,0.0
mp-22331,NdTiGe,0.0
mp-983426,PmDyCu2,0.0
mp-560321,Mg2SiO4,4.4414
mp-560718,TeH12AuC4S3N,2.065
mp-27319,Sc2Co3Si,0.0
mp-1008523,BC2N,1.5215999999999994
mvc-5282,MgCuAsO5,0.5773999999999999
mp-1096584,LiGa2Tc,0.0
mp-716723,V9O17,0.5599999999999996
mp-755352,Li2HfO3,4.4196
mp-761638,Li2CoP2O7,2.3923000000000005
mp-1786,Ti3Au,0.0
mvc-12113,Mn2Nb2Zn2O9,1.7460999999999998
mp-1018674,DyAlZn,0.0
mp-1028309,SrMg14V,0.0
mp-20838,CaIn4Ir,0.0
mp-744756,CoHRu(CO)6,2.2321
mvc-9986,ZnCr2O4,1.0532
mp-632864,LiNiO2,0.0
mp-691161,Mg(FeO2)2,0.0
mp-4075,TbZrSb,0.0
mvc-6554,Zn(BiO2)2,1.5583999999999998
mp-557134,SiO2,5.4591
mp-565757,Gd2WO6,3.1124
mp-773358,Li2Fe2(PO4)3,0.0
mp-568551,Yb(CrSi)2,0.0
mp-22965,BiTeI,1.2741999999999996
mp-25529,LiFePCO7,0.0
mp-865546,Yb2AgBi,0.0
mp-1099293,HfMg6Ni,0.0
mp-753854,Rb2PH3SeO8,4.0775000000000015
mp-628782,V3Pb5ClO12,2.7954
mp-642682,CsHO,3.1721000000000004
mp-989553,Cs2TlGaH6,0.3826999999999998
mp-868260,Li2Mn2P2O9,0.6033
mp-20602,U(FeGe)2,0.020299999999999763
mp-11363,TbCu5,0.0
mp-3388,U(SiRu)2,0.0
mp-769929,MnCrO4,1.3321
mp-768076,Li3V4(PO4)6,0.6562000000000001
mp-704102,MoSO6,3.0618000000000003
mp-769642,Fe(CO3)2,0.0
mp-1068300,Ca(FeAs)2,0.0
mp-1097651,Be2CuNi,0.0
mp-30236,TlAsSe2,1.1440000000000001
mp-1037482,Mg30ZnCoO32,2.4316000000000004
mp-13322,LiGeRh2,0.0
mp-1028149,CaMg14B,0.0
mp-1018895,PrFeSi,0.0
mvc-9876,Ba2Cr2F11,0.4162
mp-746778,MnHC3O4,2.7733
mp-559223,GdH6C4NO9,3.0599000000000003
mp-554405,ZnS,2.0715000000000003
mvc-12655,Zn(CoO2)2,0.3609
mvc-1363,Ba2W3O7,0.0
mp-567643,Ba12Na15Li8N6,0.0
mp-603849,FeF3,2.8442000000000003
mp-763793,Li2Mn3F8,3.3624
mp-1038638,Mg30CrBiO32,0.2507000000000001
mp-1022132,Mg6FeSb,0.0
mp-542802,YCuPbS3,1.6339999999999997
mp-780010,Ba2GeO4,3.7083
mp-17661,RbNd(PO3)4,5.3014
mp-560231,CuSb2(XeF4)6,0.0
mp-554825,K2SnP2O7,4.1772
mp-1032532,Mg6TiFeO8,0.0
mp-27294,Ca3AsBr3,1.6656999999999995
mp-979009,Th3Be,0.0
mvc-8843,MgTiBiO5,0.0
mp-20011,NaSbO3,1.7085999999999997
mp-772748,Ba2P6O17,5.2547000000000015
mp-865485,V2CrOs,0.0
mp-698449,PH12C2N6O3F,4.9350000000000005
mp-28913,Ti6CCl14,0.9746
mp-570965,Pr6CoBr10,0.09879999999999978
mp-1038778,Sn3Bi,0.0
mp-853237,Li4Ni2(PO4)3,0.005199999999999982
mp-9024,LuSiAu,0.0
mp-24046,NaAlH24(SO10)2,5.3109
mp-28470,Ta7(Te12I5)2,0.0
mp-1096244,TiTc2Ge,0.2354000000000003
mp-780559,Fe3O5F,0.0
mp-771999,Li4Y3CrO8,3.2591
mp-642811,KCu2H2(SeO5)2,0.0
mp-14488,Li3In2(PO4)3,3.6772
mp-1020632,RbB3O5,5.6294
mp-774323,Li4MnV3(P2O7)4,0.4303000000000001
mp-1096708,NaAgPd2,0.07560000000000011
mp-557160,NaCa3RuO6,0.4293
mp-571582,TlHg3Sb2Br3,0.6482000000000001
mvc-3729,MgCoF5,1.9327
mp-683897,Pr3Sn13Rh4,0.0
mp-1025356,ZnAsPt5,0.0
mp-757116,Rb3ErO3,2.0414000000000003
mp-693773,ScH16C3S3O17F9,3.936
mp-2892,BaNd2O4,3.0973
mvc-5849,CaMn2O4,0.02760000000000007
mp-771366,LiMn2(PO4)2,0.0
mp-698120,KGd2Cu(MoO4)4,0.7997000000000001
mp-1465,Nd5Ge3,0.0
mp-694564,Li2Fe(PO3)8,0.0013999999999999568
mp-1077032,CeZn2,0.0
mp-762908,LiMn2F5,3.0017
mp-654335,CsK5Ru2O9,0.0
mp-1018634,Lu(CuS)2,0.0
mp-779579,LiCu5(PO4)2,0.15640000000000054
mp-21647,CeGePd,0.0016999999999995907
mp-753239,LiSnPHO5,2.3771
mp-305,TiFe,0.0
mp-766390,Li5BiS4,1.8897
mp-706251,Cr4H67C20(NO)16,1.1999
mp-1025182,V2FeSe4,0.0
mp-27254,Ba(TeO3)2,1.7482000000000002
mp-758619,KPHO3F,5.1778
mp-1039765,CeMg,0.0
mvc-9023,CaSnBiO5,0.0
mp-1074175,Mg4Si7,0.0
mp-8200,AgP2,0.952
mp-773980,Bi3(TeCl5)2,1.1743
mvc-5779,Ca2CuWO6,0.0
mp-653973,KZnPO4,3.8873
mp-638008,KRb2VF6,2.5243
mvc-3700,Zn3Si3(SnO6)2,0.0
mp-530701,Ni5(Mo3Se4)8,0.0
mp-971960,Zn3Os,0.0
mp-696678,PH2NO2,0.0
mp-29218,Ge3Bi2O9,2.9644
mp-763378,Li3Fe2(CO3)4,1.7107
mp-30298,KAsO2,3.8449
mp-778566,Li4Mn3Fe(BO3)4,2.8847
mp-771105,Li5Cu2Ni5O12,0.2508999999999997
mp-651900,CeSiP3,0.0
mp-764873,LiFe4(BO3)4,1.6113000000000002
mp-568237,CeNiSb3,0.002700000000000813
mp-1028592,Te3MoWSe,0.0005999999999999339
mp-8989,Na2P2PdO7,1.4839
mp-1002114,VH,0.0
mp-559814,Li5SbS3I2,2.5079
mp-763429,LiFe(CoO3)2,0.7232000000000001
mp-20895,NpAs,0.0
mp-23127,Ba2BiSbO6,1.6979000000000006
mp-650816,La5V3S6O7,1.0339
mp-648805,Os7C19SO19,1.483
mp-776163,Li8NbFe7(PO4)12,0.0
mp-1019552,Ca16(SiN2)17,0.0
mvc-5788,Ca2AlBiO5,2.2977
mp-1080509,ZnSiAs2,0.8866
mp-779434,Li5La3Nb2O12,3.4842
mp-561716,La3(NiO3)2,0.0
mp-600063,SiO2,5.6966
mp-754326,NaAgO2,0.5874999999999999
mp-16220,Si,0.5334000000000003
mp-676598,TlPbCl3,2.6017
mp-569967,K2PrCl5,4.8153000000000015
mp-11022,ScAgO2,2.1151
mp-771163,CsY3O5,4.0757
mp-1095799,YNbTc2,0.0
mp-999437,Nb3Ni,0.0
mp-764954,LiV(TeO4)3,1.3811000000000004
mp-1028621,Te4MoW3(SeS)2,0.0
mp-1068431,Yb(ZnSb)2,0.0
mp-4538,TaSnS2,0.0
mp-754409,HoBO3,5.0979
mp-1084,ZrB12,0.0
mp-581281,Dy5SbAu2,0.0
mp-1032507,Mg6ZnCrO8,0.0
mp-773627,Li2Fe3BiO8,0.2696000000000001
mp-850474,Ni(PO3)3,0.0222
mp-22979,GaBiO3,1.2258999999999989
mp-13436,PrMgNi4,0.0
mp-558125,BaTiO3,2.3004
mp-29320,Te3SeO8,2.6533
mp-754335,Ga3NO3,0.8802999999999999
mp-566480,SmSbMo2O9,3.2360000000000007
mp-865451,Tm2MnOs,0.0
mp-762934,V2Fe3P6WO24,1.2247999999999997
mp-5699,K2CuF4,0.0
mp-1019562,Ca2SiO4,4.1723
mp-1028298,BaMg14V,0.0
mp-779859,Li6MnFe5(BO3)6,2.8303000000000003
mp-776714,Li3V2P4(HO8)2,0.7027999999999999
mp-557970,SrCu(TeO3)2,0.5251999999999999
mp-773443,V3O7,0.0
mp-5170,NdCoSi2,0.0
mp-570506,ZrI2,0.28580000000000005
mp-1026531,Mg14NbW,0.0
mp-19240,ErCrO4,0.2458
mp-567904,Na2Mn(PO3)5,1.3331
mp-643614,Nd(MnSn)6,0.0
mp-1073859,MgSi,0.0
mp-1037593,LiMg30FeO32,2.4185000000000003
mvc-8284,MgNiMoP2O9,0.0
mp-972125,LiTb3,0.0
mp-30911,TbCoSn2,0.0
mp-1073224,Mg2Si3,0.0
mp-24610,LiP(HO2)2,5.5778
mp-863858,Li4V2F9,0.9706
mp-19420,Sr2MgWO6,3.4276000000000004
mp-776622,LiV2F7,2.1015
mp-770448,La2Ti3O9,2.6215
mp-754684,Ba4IrO6,0.0
mp-5616,Sr2P2O7,5.1125
mp-4086,La2Sn2O7,2.6591
mp-606102,Ce3In3Ru2,0.0
mp-769390,Ca3Ta2O8,4.2097
mp-762072,LiNiPO4,2.8542
mp-861733,LiTePd2,0.0
mp-10413,AgB(CN)4,4.2761
mp-568058,YbIn2,0.0
mp-765311,LiVCrP2(HO5)2,1.5725000000000002
mp-22855,HgCl2,2.8686
mp-675892,Yb(SbTe2)2,0.5893000000000006
mp-1074080,Mg4Si7,0.0
mp-772875,Ba2SrI6,3.4322000000000004
mp-755895,Ba3Zr2O7,3.0246000000000004
mp-542099,Cs4PbO4,1.7688999999999997
mp-850280,Na8SnO6,1.7356
mvc-14553,FeN,0.0
mp-13306,YbCuGe,0.0
mp-1078274,Ca2SnGe2,0.0
mp-1722,Zn13Fe,0.0
mp-867967,La3AlVS7,0.0
mp-504877,HoB7Mo3,0.1291999999999991
mp-1076213,SrCaMn2O6,0.0
mp-1079516,Cu(ClO)2,0.0
mp-765610,Na11Mn13O32,0.0
mp-574663,CdI2,2.4303000000000003
mp-758806,B5PH4Cl,4.2176
mp-1095940,Zr2ZnCu,0.0
mp-685069,Sc2Te3,0.003300000000000303
mp-28914,Cd4P2Br3,1.5415
mp-20764,YbCeSe3,0.001100000000000101
mp-780820,CrO,0.0
mp-560963,Rb2NaMoF6,4.2219000000000015
mp-1022962,CeYMg6,0.0
mp-3699,CoAsS,0.0
mp-767330,Mn3(OF)2,0.8096000000000001
mp-763389,Li2Co(SiO3)2,3.2331
mp-1013564,Sr3BiAs,0.0
mp-561685,CsYbCoS3,0.0
mp-685079,Nb32N27,0.0
mp-3411,Tl(MoSe)3,0.0
mp-17279,SiO2,5.8139
mp-1080443,YCu,0.0
mp-984716,CaSn4(PO4)6,3.5179
mp-762487,LiFeP2O7,2.2834
mp-1034853,CsLaMg14O16,0.0
mp-1079622,Ba3(ZnAs2)2,0.0134000000000003
mp-768373,Ba2YBr7,3.8551
mvc-15237,Ba4CaCu6(HgO8)2,0.0
mp-1077340,HoNi4Au,0.0
mp-863901,Li2V(SiO3)2,1.6437
mp-764175,Mn12O5F19,0.0
mp-764907,Li3Fe3OF7,2.7048
mp-977207,Li2Mg,0.0
mp-8017,AlCuTe2,1.0186000000000002
mp-22830,DySi3Rh5,0.0
mp-7572,MgSO4,5.4889
mp-2743,LiPd,0.0
mvc-3995,MnZnO3,0.1149
mp-6651,K2Ta2(OF2)3,3.9245
mp-11792,PrCuSe2,0.7445999999999993
mp-763876,Li2MnSiO4,3.0699
mp-779062,Li3V4(OF3)3,1.1483
mp-867245,LaAgHg2,0.0
mp-1080160,TeMoWS3,0.025599999999999845
mp-867004,Th2Ni7,0.0
mp-505313,BaGd2CoO5,1.4514
mp-764611,LiFe2(BO3)2,1.43
mp-763639,Li3Ti2V3O10,1.6465
mp-705604,BaLaFe2Cu2O11,0.0
mp-1068635,Y(SiIr)2,0.0
mp-771172,Li5Cu4(BO3)4,0.0
mp-31575,LiCo2P5O16,1.2263000000000002
mp-684082,LiSb(PO3)4,4.0039
mp-4253,V(CrC)2,0.0
mp-757569,LiSn(PO3)4,0.0
mp-767779,VCr(P2O7)2,0.9038
mvc-160,CaBe3Co2(SiO4)3,2.8321000000000005
mp-775850,Mn2Fe3Sb(PO4)6,2.248
mvc-6602,Mg(CoO2)2,0.18739999999999926
mp-8711,Cs2Li14Tb3O14,0.0
mvc-6165,Co3(AsO4)4,0.10560000000000004
mp-1028405,Mg14CoC,0.0
mp-982883,Na6Cd16Au7,0.0
mp-642792,BaBi2(MoO4)4,3.0264000000000006
mp-863701,Ho2Mg,0.0
mp-980062,YbErZn2,0.0
mp-644852,BaCa(CO3)2,4.621899999999999
mp-767985,Li2NiP2O7,4.169
mp-766449,Li3TiSiO5,0.02629999999999999
mp-1002574,KMnO2,2.2201
mp-1030419,Te3MoWS,0.00550000000000006
mp-683891,MnSb6(Pb2S7)2,0.4470000000000001
mp-761820,LiFeSi3O8,3.1604
mp-13917,LiCaGe2,0.0
mp-561643,Co2TeCl2O3,2.4064000000000005
mp-39003,Mg3Al14O24,4.3892000000000015
mp-703342,Ti2P2H4O11,2.7606
mp-684869,Te16Rh11,0.0
mp-657749,MnAgO4,0.3114
mp-1016882,CdOsO3,0.0
mp-1030667,NaMg6CO8,0.0
mp-761842,Hf3SnO8,3.5825
mp-7128,Cd(AsO3)2,1.9253
mp-14722,NaSrAlF6,6.9766
mp-29538,BaGdCl5,1.9938
mp-767994,BaV8O16,0.0
mp-31352,Er2(SeO3)3,3.9485
mp-759095,LiSn2P4H3O16,3.3251000000000004
mp-762248,LiSb3(P3O10)2,2.8455
mp-862732,PmZn3,0.0
mp-1098371,HfMg30TiO32,0.0
mvc-9136,VZnBiO5,2.9750999999999994
mp-554558,Gd2(MoO4)3,0.0
mp-1001009,MnSe,0.0
mp-753983,In2HgO4,0.14620000000000033
mp-774552,Li11Y14Ti14(S2O5)7,0.0
mp-859132,Li8VO5F,2.0061
mp-559344,WSF4,3.3106
mp-30574,CsGa7,0.0
mp-9646,La(PO3)3,4.6731
mp-772685,CrPO5,0.218
mp-23702,LiH2N,3.1358
mp-28968,Nb3Te3As,0.0
mp-626512,FeHO2,1.9234
mp-743915,VPH6C2N3O7,1.7746
mp-566151,Pb3WCl2O5,3.0444
mp-1034035,Mg14TiCdO16,0.0
mp-554243,SiO2,5.6227
mp-1035536,LiMg14SiO16,0.0
mp-1028352,NaMg14Ni,0.0
mp-1080194,Re3N5,0.0
mp-505633,Cs2Zn3S4,2.8432
mp-764247,Na3(NiO2)5,0.4483999999999999
mp-674348,Gd2MnS4,0.8617999999999997
mp-867626,Tl3Os3O10,0.0
mp-1096019,Sc2InOs,0.0
mvc-2490,Sr2AlTlCo2O7,0.0
mp-1025029,PrHSe,1.9171
mp-1030576,Te4Mo3W(SeS)2,0.0
mp-555901,KCuCO3F,0.0
mp-774951,Li2MnCr3O8,0.6859999999999999
mp-780204,LiMnP4(H2O7)2,1.5253
mp-666,UTe2,0.0015999999999998238
mp-769748,Li4Ni5BiO12,0.0
mvc-2391,Ca2Ta2TiO8,0.0
mp-705379,Li5Co9(P2O7)8,0.6744999999999999
mp-989530,SrTcN3,0.5220000000000002
mp-24883,Ba2Tb2Co4O11,0.05410000000000004
mp-541113,Cs3P7,2.3466000000000005
mp-695307,K6Sb2H18S8O9,2.0284
mp-771927,Li7Ni5O12,0.0
mp-7118,Rb4SnO4,2.1562
mp-669473,Cs3Sb2Cl9,2.6322
mp-865019,HfGaRh2,0.0
mp-973769,Hf6Al16Os7,0.0
mp-776858,Cr3Ni(SO4)6,0.0
mp-570692,In5B4Ir9,0.0
mp-542719,Na3Ca(BO2)5,4.556699999999998
mp-763991,MnOF,0.0
mp-6074,KRb2TiF6,0.0
mp-542967,SnSO4,4.1208
mp-16996,Li3GaSiO5,3.844
mp-756045,Li4Sn(BO3)2,2.5108
mp-19574,Mg3Fe2(SiO4)3,2.7553000000000005
mp-555396,Mg2PClO4,5.0406
mp-754118,Sr(AsO3)2,3.2716
mp-12466,Fe(PdSe)2,0.0
mvc-8677,SbPO5,2.2165
mp-1079308,SmAsRuO,0.0
mp-1039141,MgAl,0.1398999999999999
mp-1037601,BaMg30ZnO32,3.9007
mp-774246,Nb9VO25,1.9967
mp-12120,FeN,0.0
mp-556822,Na2CuP2O7,0.6496999999999999
mp-771606,Li2Cr3SnO8,0.0
mp-2096,YbMg2,0.09299999999999996
mp-8708,Mg(AuF4)2,1.9247
mp-979425,YHoAg2,0.0
mp-17965,KGaTe2,1.2481
mp-1023164,CaMg6C,0.0
mp-867936,BaAl2O6,0.0
mp-631394,CaZrPd,0.0
mp-554952,Te2Pb3(ClO3)2,2.6478
mp-1037659,RbYMg30O32,3.1720000000000006
mp-30582,HfCuHg2,0.0
mvc-3741,ZnCoF5,1.6343
mp-698647,LiVO2,0.08089999999999975
mp-683675,U2MoO8,0.0
mp-706490,Mo9O26,0.6425000000000001
mp-764592,LiFe2OF3,2.6416
mp-776921,Ti3CrFe2(PO4)6,0.027099999999999902
mp-850958,Li4Mn3Fe(BO3)4,2.9509000000000007
mp-559568,K2Se2O5,3.5339
mp-24844,MnCoO3,1.0859000000000003
mp-570311,K4Sr2SnAs4,0.5377000000000003
mp-771071,Li2FeBO4,2.5281
mp-14531,NaNb3O8,2.2455000000000003
mp-865240,Lu2MgIn,0.0
mp-554286,La6Ti2S8O5,1.3379000000000003
mp-758504,K2Mg3P4(H5O6)4,4.9860000000000015
mp-759684,Na3Bi(P2O7)2,0.0
mp-753506,LiBiS2,0.0
mp-14824,Sr2HoCu3(PbO4)2,0.0
mp-850235,Mn8O13F3,0.0
mp-1002571,NaMn2O4,0.5661
mp-764665,Li5Fe8(BO3)8,1.5546000000000002
mp-861497,Pr2AgIr,0.0
mp-2754,Hf2Fe,0.0
mp-546011,YZnAsO,1.2061000000000002
mp-554040,CuSeO4,0.0
mp-863716,Pm2IrPd,0.0
mp-24416,MnH,0.0
mp-777554,CrO,0.0
mp-1094661,MgGa,0.0
mp-5304,LaAlO3,3.4925
mp-18501,Ba(AgTe)2,0.6732999999999998
mp-554813,NbCrF6,0.0
mp-1017064,RbMg6Bi,0.0
mvc-16445,Ca2BiAsO6,3.2393
mp-1073115,Mg2Si3,0.0
mp-650328,NbTe4,0.0
mvc-10167,V2Zn(PO4)2,1.3584999999999994
mp-863723,Ho2MgGe2,0.0
mp-642210,MgSiO3,4.2049
mp-779056,Li2FeP2O7,3.9628
mp-1078984,Ce2Fe2S2O3,0.0
mvc-10267,HoZn(FeO3)2,0.0
mp-15222,Rb2NbCuSe4,1.6771
mp-761565,Li4Mn3Cu(PO4)4,0.0
mp-1096188,Ta2VRh,0.0
mp-672240,TbNi,0.0
mp-1097768,KYbSe2,0.0
mp-1087494,YbPdPb,0.0
mp-768193,Li2SmPCO7,4.6370000000000005
mp-1087231,Yb2Ge6Pd,0.0
mp-1018728,HoSe2,0.0
mp-10298,Sm(SiPt)2,0.0
mp-554765,BaSb2F12,4.0459
mvc-12117,Mg(CoO2)2,1.9705
mp-4096,CeAlO3,0.0
mp-504559,Pr2W2O9,3.51
mp-763362,LiMnF3,3.383
mp-6081,Ba2Ti(SiO4)2,3.7171
mp-862734,Pm2ZnSn,0.0
mp-1028322,Mg14AlC,0.0
mp-600031,SiO2,5.6567
mp-555108,PH9C(NO)4,5.0103
mp-643356,SrH2Br2O,4.1758000000000015
mp-571439,Ce10Ga5Br4,0.0
mp-1025413,ThSi2Ni,0.0
mp-510566,La3CuSnS7,1.7763999999999998
mp-545479,B4CCl6O,4.0675
mp-1038357,HfMg30BiO32,0.005300000000000082
mp-34081,NaYF4,6.936
mp-850157,LiMn(PO3)4,1.3193
mp-30024,Sr(AlCl4)2,5.4902
mp-29690,Tl2Te2O5,2.8109
mp-1028598,Te3W2Se,0.30849999999999955
mp-771238,Y2TeO6,2.2227
mp-733998,TbH12S2NO12,5.1568000000000005
mp-1094016,YbMnSb2,0.0
mp-37919,YCBr,0.0
mp-1096069,Ba2NaIn,0.6849000000000001
mp-754584,Na5CuO4,0.0
mp-505166,ErCu(WO4)2,1.5054999999999996
mp-1031824,Mg6MnNiO8,0.6932
mp-763790,Mn(PO3)3,1.0864
mvc-9017,MgAgBiO5,0.5313999999999999
mp-1074429,Mg4Si3,0.0
mp-31610,Co3P3O11,0.36150000000000015
mp-850497,K2MnP4(HO2)8,4.2508
mp-979044,Tm2CuAu,0.0
mp-22692,Pb,0.0
mp-1030165,Te2MoWSe2,0.06979999999999986
mp-763870,Li2Mn2C2O7,2.1548
mp-31474,Rb2Hg7,0.0
mp-1094961,Mg3Al,0.0
mp-779804,Li4Mn3Fe(BO3)4,3.024
mvc-1261,YSb3Se2ClO8,0.0
mp-1096735,BaMgHg2,0.14480000000000004
mp-662605,Na2Si4O9,4.4699
mp-1010,MnB4,0.0
mvc-5726,ZnCrAsO5,1.9965
mp-771660,MnP2O7,0.8066
mp-775113,NaMnO2,1.2883
mp-971738,ZnCuNi2,0.0
mp-624200,Re3Se4Br,1.4421000000000004
mp-769075,Li2CuH14C4(N3O4)2,0.7784000000000002
mp-18352,HfTe3O8,3.8426
mp-559278,K2S,2.0512
mp-998325,RbCaI3,3.4331
mp-1038258,Mg30AlSnO32,0.053500000000001435
mp-698577,La6Mn5O18,0.049900000000000055
mp-29208,Ca(MgBi)2,0.3886000000000003
mp-999144,SmNiC2,0.0
mp-696128,Li10Ge(PS6)2,2.0551
mvc-2946,Ba2MgV2CuF14,1.6703
mp-757507,Sm3Bi5O12,2.5489999999999995
mp-1080162,Te2Mo3W(SeS2)2,0.01650000000000018
mp-765770,VOF3,3.4485
mvc-10529,PWO4,2.1565
mp-556005,ZnS,2.0467
mp-505638,Tb3CrSe6,0.13260000000000005
mp-677704,Sb2H10C3NCl9,0.42810000000000015
mp-172,Nd5Ge4,0.0
mp-541176,CsV2P5O16,2.1262
mp-1035838,YMg14CdO16,0.1504999999999992
mp-6708,RbNb2PS10,1.5518
mp-755382,BiSbO3,2.1015999999999995
mp-849255,LiMn3(P3O10)2,0.02020000000000001
mp-581770,Sm4Al23Ni6,0.0
mp-767745,Li6Mn2O5F2,0.8142
mp-557176,Ba5B4(O5F)2,4.5127
mp-1073917,Mg6Si5,0.0
mp-758033,Y13Ho19O48,4.0174
mp-644369,BaBiO3,0.1011000000000002
mp-1080775,PrInNi2,0.0
mp-641575,Cr21(WC3)2,0.0
mp-8426,K2Se,2.0909
mp-12549,BaAl9Ni2,0.0
mp-865504,YAlAg2,0.0
mp-14552,Ba2SrUO6,2.2434
mp-556863,Ba3AlF9,6.5801
mvc-4245,SbO2,0.03690000000000016
mp-1078870,UGaRh,0.0
mp-560665,LaPb6BrO7,1.9305
mp-973339,Lu3Th,0.0
mp-32028,Mn(PO3)4,0.654
mp-779031,NaV(PO4)2,2.0431
mp-610491,BiSeCl,1.8404000000000005
mvc-8272,CaAs2WO7,3.075
mp-28603,NaLiSe,2.4375
mp-710070,K5Ce2H2S6O25,0.12700000000000022
mp-1033591,NaHfMg6O7,0.0
mp-16919,Y2HfS5,1.2263000000000002
mp-780147,LiMnSiO4,0.9949000000000005
mp-979001,SmAs2Au,0.0
mp-675124,In4SnS8,0.2407000000000004
mp-755289,Li3Y3ZrO8,4.1806
mp-557137,KCoO2,0.6725999999999999
mp-556145,NaAsO2,3.6341
mp-851040,V2OF5,1.5246
mp-21922,Te3(PbO4)2,2.9897
mp-637470,Rb2NaVF6,0.002500000000000057
mp-766021,KH(IO3)2,3.508
mp-578,GaAg2,0.0
mp-781607,LiMn3(BO3)3,0.4590000000000001
mp-1057787,KP,0.0
mp-566372,K2UCr(IO6)2,2.1162
mp-775679,Li2Mn3CrO8,0.6906999999999996
mp-1016835,CaRuO3,0.0
mp-558632,KNaSO4,4.9597
mp-555706,LiAlSiH2O5,1.7217999999999998
mp-625619,H4N2O3,0.6079
mp-775252,Li8Mn3Fe5(BO3)8,3.0354
mp-867790,Ba5Ru2O11,0.3404999999999996
mp-28809,TlBS3,1.7904000000000004
mp-850973,V3O5F,0.32989999999999986
mvc-698,AlRe(WO4)2,0.7416
mp-1077379,NdCdNi4,0.0
mp-22202,BaTm2CuO5,0.025399999999999867
mp-1080534,Cs2Li3I5,3.8632
mp-554288,NaPH4O5,5.2286
mp-9568,Li3Ga2,0.0
mp-24144,Na5ScH4(C2O7)2,4.837
mp-779456,Y2ReO5,0.8513000000000002
mvc-5131,Ca2WO5,0.0
mp-1016642,Mg6GaMo,0.0
mp-30168,H34C19,5.4526
mp-1024049,Na2Zn2Se3,1.9011
mp-1745,Sm2O3,3.7443
mp-568940,Y(NiP)2,0.0
mp-96,S,2.7405
mvc-10003,Ho(SbO3)2,0.0
mp-570939,CdI2,2.4005
mvc-10489,CaCo2(CuO4)2,0.03790000000000005
mp-556074,K2Cu3(SeO3)4,0.08140000000000014
mp-1097123,MgBiRh2,0.06320000000000013
mp-707471,ZnH12(IN2)2,0.6053
mp-980752,Sm3Co,0.0
mp-2070,CoS2,0.0
mp-6318,KLiSO4,5.3179
mp-779407,Li6MnV3(PO4)6,0.4740000000000002
mp-637062,AsXe2F9,1.6953999999999998
mp-10009,GaTe,0.7804000000000002
mp-771911,Ni3(PO4)2,3.3565
mp-17928,Ba(ErTe2)2,0.7848999999999995
mvc-11909,CoP2O7,0.0
mp-1059925,CdSe,3.5799000000000003
mp-1030319,Te2Mo,0.5861999999999998
mp-1096200,Ba2HgPd,0.0
mp-780929,LiMnF4,0.6541
mp-570113,BiAu2,0.0
mp-1028061,RbMg14Zn,0.0
mvc-8312,Mn4Zn(CuO4)3,0.0
mp-550437,GdTe2ClO5,0.3643000000000001
mp-24465,GaP3(HO5)2,4.9811
mp-25524,FeAs2O7,0.0
mp-1023593,Mg15Sn,0.0
mp-770302,Li24Mn5Cr7O36,1.0553
mp-505019,USb2Ru,0.0
mp-1061685,CrB2,0.0
mp-543017,Dy12(MnC3)5,0.014499999999999956
mp-1094964,HfMg,0.0
mp-1034686,SrMg14SiO16,0.6237000000000004
mp-568318,KTaTe3,0.41800000000000015
mvc-12340,Mn4ZnS8,0.0