mpid,formula,gap pbe
mp-864876,TbInRh2,0.0
mp-754040,CeSmO2,0.0
mp-542903,ZrPbO3,2.7758000000000003
mp-1016342,SrMg6Sb,0.0
mp-1078839,PrCoSb2,0.0
mp-5322,Pr3IrO7,0.0
mp-1037160,Mg30TiCoO32,0.23769999999999936
mp-1023395,Mg6AlSn,0.0
mp-2843,SnF2,3.4161
mp-561514,NaSrB5O9,5.2309
mp-697025,HI,4.0739
mvc-4902,MgNiO2,1.942
mp-1086656,Tb(NiSb)2,0.0
mp-746688,K4MnH6(S2O9)2,4.6259
mp-32482,VTeO4,1.5695000000000006
mp-10681,B2Au,0.0
mp-1026853,KMg14C,0.0
mp-763672,FePO4,2.3689
mp-697925,Na5YbH4(C2O7)2,0.0
mp-510766,MnBO3,0.0035000000000000586
mvc-823,Zn(Co2O3)2,0.0
mp-600524,FeH14C3Br3NO2,3.7997
mp-12801,CoCu2Sn,0.024599999999999508
mp-850978,VFeO4,1.7642
mp-1078184,Eu4Bi2O,0.0
mp-765321,Li2VF5,2.3259
mp-2639,Na3N,0.0
mp-774101,LiFeO2,1.7748999999999997
mp-639164,Co7Te4(BrO2)6,2.2401
mp-626470,Al(HO)3,5.0046
mp-554081,Ca2PClO4,5.3708
mp-685394,Eu2Al42O65,1.1410999999999998
mp-865423,UB4W,0.0
mp-1025297,SmC6,0.0
mp-1067280,TmTlSe2,2.105
mp-771230,Na4Li3(FeO4)2,0.0
mp-12494,CsPrCdTe3,1.7913
mp-30529,B5H11,4.7915
mp-14006,BaGeF6,5.7917000000000005
mp-1093703,Zr2ZnCd,0.0
mp-13573,Sc5Si7Pt9,0.0
mvc-5718,ZnFeP2O7,2.9624
mp-1022517,RbMg6Zr,0.0
mp-542660,Fe7(AsO4)6,1.5635
mp-868616,Li2FeCo3O8,0.0
mp-1070216,K(NiSe)2,0.0
mp-558083,BaLi2Ti6O14,2.8908
mp-773747,Li3Fe4(BO3)4,1.9972
mp-1021310,HfMg6Ti,0.0
mp-12210,YbP5O14,0.0
mp-865349,Li2GdTl,0.0
mp-771032,Na2CuAsCO7,0.0
mp-690136,Mg4Al3(HO)17,2.4294
mp-705749,Fe14Ni11O32,0.0
mp-754739,CaBe3O4,3.9115
mp-861563,Li3VSiO5,1.6511000000000005
mp-1029920,Y2(CN2)3,3.9251
mp-1027334,Te4Mo3W(SeS)2,0.2664
mp-541025,Ca3SiH30CSO25,4.4162
mp-773635,Li8Mn2O9,0.0
mp-697808,LiFe2P3O13,0.0
mp-504659,Hf2P,0.0
mp-866036,EuRuO3,0.0
mp-15794,LiYSe2,1.5238999999999998
mp-1017370,Mg6GaSi,0.0
mvc-6058,Mg(CuO2)2,0.0
mp-1029269,Zn2MoN3,0.0
mp-30352,NaAg2,0.0
mp-777070,Li4V2C4SO16,1.955
mp-861634,NiH16(ClO8)2,4.1548
mp-166,Ca,0.0
mp-961671,TiGePt,0.0
mp-569854,Ga3Bi5Cl12,1.8008
mp-769128,Dy2Sb2O7,1.3651
mp-763959,Li3Mn3FeO8,0.5577000000000001
mp-6194,K4UC3O11,2.0892
mp-559833,Na2YC(OF)3,5.261
mp-867727,Li5(BiO3)4,0.0
mp-1033115,Mg6AlCoO8,0.0
mp-1097030,Li2O2,0.0
mp-28779,USbO5,0.000399999999999956
mp-864786,Yb2PdPt,0.0
mp-776320,CuAsO3,0.0
mp-762407,Li6Mn5O10,0.7210000000000001
mp-50,Ta,0.0
mp-555848,H8C3S2,3.9735
mp-1031866,YMg6NbO8,0.0
mp-555253,La5Ti2AgS5O7,1.5128000000000004
mp-1032360,BaMg6CoO8,0.0
mp-559521,InBi2S4Cl,1.5605000000000002
mp-764459,Li3Fe4(BO3)4,1.8891
mp-634930,YbH3,0.0
mp-561909,V2CdO6,2.6495
mp-777117,Li2MnNi3O8,0.20740000000000025
mp-1007862,Fe3Ni,0.0
mp-4740,Y(CrSi)2,0.0
mp-573316,CsPt2Se3,1.0491
mp-999257,Sc2MnC,0.0
mp-733653,CaAl2Si2(H2O5)2,5.1385000000000005
mp-762994,LiMnF4,0.9085
mp-761582,LiNiP2O7,0.0
mp-715664,V4O9,0.8147
mp-555267,CuHgSBr,0.5100000000000002
mp-775546,Li4Mn(WO4)3,0.0
mp-761411,Li4Ti2Nb3Cr3O16,0.0
mp-647520,Sb2Pb2O7,0.0
mp-25644,Li3V2(SiO5)2,0.0
mp-698396,CuH4C2NCl3O,0.11909999999999996
mp-567113,BaCrO3,0.0
mp-540294,Cr2(PO4)3,0.1017
mp-23475,Rb2PbCl6,1.319
mp-767208,Sb17S27,0.0
mp-764576,Li5Fe8(BO3)8,1.3904999999999998
mp-1062842,MgF2,5.5955
mp-644879,MgSiO3,4.5951
mp-558396,Rb2Te(H6O5)2,3.0155000000000003
mp-771384,Lu2Co2O7,0.0
mvc-4875,MnZnO2,0.12300000000000022
mp-1031346,KCeMg6O8,0.0
mp-4174,HoNiSb,0.4127000000000001
mvc-7369,WO2,1.7674
mp-1098894,Mg30TiCoO32,0.0
mp-29327,SmBrO,4.5207
mp-25871,Li3Cu2P5O16,0.3295999999999999
mp-863899,Li2Ni(PO3)4,4.5393
mp-557084,Al2CuSi2O7F2,0.6347999999999998
mp-1028110,Mg14TiMn,0.0
mp-1027877,Mg14CrFe,0.0
mp-763105,FeOF,1.6587
mp-554472,PNClF,5.0565
mp-704492,MnPO4,0.3601
mp-763925,Mn6O7F5,0.06780000000000007
mp-763198,Li2VO2F,1.1979000000000002
mp-1023293,CaMg6Fe,0.0
mp-754567,NaCdO2,0.0
mp-778896,Li32Mn3Cr13O48,1.0174999999999996
mp-571059,YCd3,0.0
mp-1095063,YFeGe2,0.0
mp-540822,Cs3Zr2I9,0.3956
mp-21985,In3Cu7,0.005799999999998917
mp-861910,Sc3Hg,0.0
mvc-128,Ba2Tl2Zn3(CoO3)4,0.0
mp-985296,Ag3Pd,0.0
mvc-10552,MgP3W3O13,0.9504
mp-769994,Li3Ti2CoO6,0.28000000000000025
mp-1097229,NaIn2Bi,1.2432
mp-19096,Ba2VO4,1.5334
mp-764709,LiFe2(BO3)2,1.2207
mp-1016236,Mg3Sb,0.0
mp-644499,CeCoGeH,0.0
mp-555236,Tm2Te5O13,3.0624
mvc-3221,Sr3Co2S2O5,0.0
mp-1077266,KLiS,2.732
mp-778043,Li32Ti3Cr13O48,0.9914
mp-1019566,Ca3ZnGe5O14,2.4862
mvc-16458,Ca3Cu3(AsO4)4,0.5670999999999999
mp-774283,Re2H6PbC(NO5)2,2.4994
mp-27292,Hg3As2F12,2.6234
mp-767447,LiVSiO4,2.2633000000000005
mvc-2203,CaCo(PO3)4,3.0923
mp-769355,AgH3O2,1.0711
mp-686043,Gd3NbO7,2.3694000000000006
mvc-8334,CaCo(GeO3)2,1.9853
mp-867110,Sc2CoOs,0.0
mp-568753,TcBr3,0.13080000000000006
mp-641314,Dy2(GePt3)3,0.0
mp-1097465,LiHfHg2,0.05970000000000032
mp-1077102,TmSn2,0.0
mp-973396,KBeO3,0.0
mp-2399,YHg,0.0
mp-759409,H18RuC6(SCl)3,0.3309
mp-770157,Li5Mn2P2(CO7)2,0.1229
mp-2540,VTc,0.0
mp-19957,LaGeBO5,4.0105
mp-10632,TlS,0.0
mp-19603,Sr2Co(SeO3)3,2.8214
mvc-13598,YBiO3,0.0
mp-3406,U(SiPt)2,0.0
mp-765202,MnCr3Te2(PO4)6,0.0
mp-1006351,CeY3,0.0
mp-4907,Na6Sn2S7,2.0847
mp-675654,Cd2Bi6O11,0.7775999999999996
mp-11388,GaIr,0.0
mp-867285,LiTb2Ir,0.0
mp-744774,CoH16RuN10ClO10,2.1615
mp-4577,Y3(AlNi3)2,0.0
mp-22879,PuBi,0.007600000000000051
mp-4555,Ca(AsO3)2,3.2948000000000004
mp-291,TiOs,0.0
mp-861667,LiSbRh2,0.0
mp-974846,Rb3Os,0.0
mp-1077429,NbNi2,0.0
mp-630019,GdAl2Ni,0.0
mp-1094971,MgGa3,0.0
mp-626138,Mo2HO6,0.0
mp-1096139,LiCd2Ni,0.0
mp-16340,GdPPt,0.0
mp-706709,Al4P3(HO5)3,5.5706
mp-361,Cu2O,0.4996999999999998
mp-972463,Tm5Sb3,0.0
mp-569655,BN,3.7460000000000004
mp-743819,Ca10Ti8NbFeO30,1.9961
mp-27635,Rb2SnI6,0.12429999999999986
mp-765113,Li2V(CO3)2,2.5998
mp-1093806,ScVOs2,0.1549999999999998
mp-573114,Gd3CuGeS7,1.0609000000000002
mp-1021697,Mg6TiV,0.0
mp-1096098,InHg2Pb,0.0
mp-1072185,PrAsSe,0.0
mp-566771,K17Fe5O16,2.0912
mp-572758,ReS2,1.4428
mp-566768,Ca2VClO4,3.4607
mp-4649,PdSe2O5,0.9947
mp-972649,SmHoRu2,0.0
mp-1087506,CuGeO3,0.0
mp-1349,SrPt2,0.0
mp-644763,Zr4Fe2H2O,0.0
mp-14912,La4Si2Se3O7,2.2305
mp-634410,NaN3,4.1024
mp-559813,Ba9Cu7Cl2O15,0.0
mp-755738,Rb2O,1.6455
mp-698018,LiAlSi2H2O7,3.9817
mp-636198,CeCu,0.0
mvc-9127,Zn(MoO2)4,0.0
mp-567162,Na2U(MoO5)2,2.2616
mp-570538,NaN3,3.9425
mp-1100422,VTeRu,0.0
mp-1061123,TiAl,0.0
mp-752721,LiCu2F5,0.0
mp-757514,Li4Cu2Si3O10,0.33009999999999984
mp-1012879,Li3Cr2(GeO4)3,0.019400000000000084
mp-775323,Li4Mn3CuNi2(PO4)6,0.028799999999999937
mp-867206,LiCd2Pt,0.0
mp-25772,Mn4Be3Ge3SO12,2.4229
mp-1097317,Mg2ZnHg,0.24360000000000026
mp-579184,Mo8O23,1.0384999999999998
mp-1079119,LaFeSb2,0.0
mp-19033,WO3,1.4239
mp-752672,NaDyO2,4.0436
mp-1035359,Mg14NbCuO16,0.0
mp-22423,BaLa2CoS5,0.06380000000000052
mp-5452,Ce(CuSi)2,0.0
mp-29987,La3(AlI)2,0.0
mp-677193,Mg3BH2O5F,4.010299999999999
mp-684011,Eu8C4I9N7,0.6649000000000003
mp-1014244,ZrZnN2,1.99
mp-1099282,Mg6CuNi,0.0
mp-865615,GaSiRu2,0.0
mp-680756,Na4TiP2O9,2.8289
mp-1028408,Mg14GaCo,0.0
mp-758942,NaYH8(CO3)4,3.4281
mp-753957,Ce4ThO8,0.0
mp-504640,U3Ni3Sb4,0.0
mp-20555,NaPb3,0.0
mp-17037,Rb2Ti(SiO3)3,3.1377000000000006
mp-645592,Nb3(BiO3)5,1.2672
mp-862682,Ba2Ga2O5,0.0
mp-765841,LiV2O3F,1.0092000000000003
mp-27811,Li2Te2O5,3.5094000000000003
mp-27981,PuClO,0.0
mp-555394,SiO2,4.0687
mp-1093940,BaCaCd2,0.03330000000000012
mp-1094516,MgSb2,0.0
mp-21188,CeNi,0.0
mp-1062055,Br,0.0
mp-782664,Ti3MnO8,1.8237
mp-22862,NaCl,5.003299999999999
mp-1034199,RbMg14CrO16,0.0
mp-1079605,Dy2NiSn6,0.0
mp-6635,Ba2CaReO6,0.04579999999999984
mp-1818,SiF4,7.7173
mp-979028,Sm2Mg,0.0
mp-17578,Yb4Ge6Ir7,0.0
mp-562263,Cs2PbO2,1.8593
mp-5096,CaSiO3,3.6753
mp-13302,LuSnAu,0.0
mp-775450,Na5Ni2P2(CO7)2,0.0
mp-6824,Na2ZrSi4O11,4.5766
mp-561407,RbGaS2,2.4690000000000003
mp-1098849,Mg30TiCuO32,0.0
mp-853221,Li2Cr2(PO4)3,0.0
mp-635456,EuCuBi,0.0
mp-21964,TlCu7S4,0.6768000000000001
mp-30056,CsCaBr3,4.3924
mp-972572,Sm2PdRh,0.0
mvc-8885,MgV2(PO5)2,1.7264
mp-534838,Ca10Ta3Ti4Al3(SiO5)10,2.9726
mp-559191,Co3O4,0.0
mp-23764,Mg3Si2H4O9,4.2447
mp-6779,Ba2Pr(CuO2)4,0.0
mp-1034284,RbMg14BO15,1.1715
mp-27748,Be(B3H7)2,4.3166
mp-767898,Li3CrPCO7,2.716
mvc-8741,ZnSi4WO10,2.0197
mp-1022072,Mg6CoBi,0.0
mp-558078,Rb2NaFeF6,4.0722000000000005
mp-7771,Sr(CdAs)2,0.13670000000000027
mp-1095721,K2NaCd,0.4192
mp-23559,In(IO3)3,3.0681
mp-1091368,SrTa2O7,0.0
mp-1096867,Cd(CuSe)2,0.0
mp-559847,Ag5P(S2Cl)2,1.2617999999999996
mp-763632,Li4Ti3V3O12,0.0
mp-779457,Ge2N2O,1.7353
mp-32008,Li4Mn(PO4)2,4.2814
mp-773705,Na2LiFePCO7,0.0024999999999999467
mp-690570,Ni4(BiO2)9,0.03840000000000021
mp-569393,GdTlSe2,1.4039
mp-555893,Pr3CuSiS7,1.5888
mp-973626,Hg3Au,0.0
mp-12906,Sr3CrN3,0.0
mp-866045,CeYMg2,0.0
mp-766798,LiMnOF2,2.0584
mvc-3462,ZnSbF5,3.9532
mp-3854,Y(MnSi)2,0.0
mp-764351,LiMn2OF3,1.2007
mp-1080452,KCd4As3,0.0
mp-11235,SmMg2Ag,0.0
mp-766110,LiMnV(P2O7)2,1.271
mp-17512,Zn(AuF4)2,1.6950000000000005
mp-779517,Sr3Hf2O7,3.6592
mp-18677,PrSc3(BO3)4,4.3892000000000015
mp-775315,Si6Bi9O26,0.0
mp-865404,Tm3ReB7,0.0
mp-8224,CaSnF6,5.3766
mp-1080258,Cs2Se,1.5931
mp-23169,Pr2Br5,0.3666
mp-769520,Na3Mn2P2(CO7)2,0.8269
mp-684860,Sm39S56,0.0
mp-542063,Rb4H6C2O9,3.9628
mp-20241,Mg4P6Rh7,0.0
mp-8939,Si2W,0.0343
mp-1025443,ThCd3,0.0
mp-2116,ZrMn2,0.0
mp-757974,LiSn(PO3)4,0.0
mp-1074685,Mg2Si,0.0
mp-1080860,CeSe2,0.9675000000000002
mp-767588,LiMnF5,0.5943
mp-772199,Rb3ClO,0.6094999999999999
mvc-14045,Y2Co2O7,0.40370000000000017
mp-865353,TmI3,2.2545
mp-505177,TiIn2O5,1.9682000000000004
mp-1084830,LaGe,0.0
mp-1097319,MgCuAu2,0.0
mp-770243,Li3Mn2P2(CO7)2,0.0
mp-552941,Na4CO4,2.4364
mp-770218,ZnIn2O4,0.6364999999999998
mp-764953,Li7Ni(O2F)2,1.5530000000000002
mp-765959,NaPH3C2N3O4,4.5922
mp-777221,Li8FeO5F,2.9946
mp-690465,Ga2NiO4,1.5034
mvc-7747,BaCuWO5,0.0
mp-626573,FeHO2,0.9577
mp-721471,CuPH4O5F,0.2504
mp-867275,BeVOs2,0.0
mp-1032315,Mg6NbCuO8,0.0
mp-1031728,HfMg6CoO8,0.0
mp-1093688,CaCdAg2,0.5781000000000001
mp-5752,Tb(SiIr)2,0.0
mp-31385,Er5Sn3,0.0
mp-1029121,Te2MoWSeS,0.0
mp-1093800,YZn2Pt,0.0
mp-1019600,CeZr3O8,1.9004
mp-744574,CoH6(SeO4)2,2.9483
mp-1099150,YMg14CoO16,0.21329999999999927
mp-1028097,NaMg14Mn,0.0
mp-554058,K3NdH6(C2O5)3,3.2029
mp-776719,Mn2O3F,0.0
mp-541457,Pr4V5(Si2O11)2,0.8928000000000003
mp-1079680,CaFeO2,1.4643000000000002
mp-20063,Li3Ce5Ge4,0.000600000000000378
mp-865612,LiCd3,0.0
mp-862339,Sc2GaAg,0.0
mp-720334,Na2P2H14O13,5.1678
mp-1078224,CeAl4Si2Rh,0.0
mp-31579,Li3Co(PO4)2,0.8855
mvc-6878,MgCo(SiO3)2,2.9549000000000003
mp-622557,Ca3Co(SeO3)4,2.9623
mp-603347,TiNi,0.0
mp-559872,SiO2,5.6041
mp-7478,RbTmO2,3.6638
mvc-7846,Mg3Fe4(SbO4)6,1.7163
mp-762164,Li4Nb2Co3Ni3O16,0.0
mp-645663,Te2Mo3Se7Br10,1.4804000000000002
mp-770220,Ni2(SO4)3,0.0
mp-1022654,YMg6Ga,0.0
mp-771868,Li4MnNb(WO6)2,0.4554
mp-1038814,MgCd,0.0
mp-33738,TiNiO6,0.008099999999999996
mp-673663,CuGe2P3,0.0
mp-1033793,HfMg14BiO16,0.0
mp-28679,NaGaBr4,3.483
mp-773533,Na2NiAsCO7,0.03090000000000004
mp-703283,Sr2La2Mg(RuO4)3,0.0
mp-1567,ThNi5,0.0
mp-6591,SrLiAlF6,7.3154
mp-510057,Gd3NbS3O4,1.8904
mp-13803,Nb2Hg2O7,0.4385000000000001
mp-622209,Al3Ni,0.0
mp-676893,Ca4ThF12,5.5383
mvc-6195,AlBi3F15,0.0197999999999996
mvc-9660,PrMn2ZnO6,0.0
mp-1061691,MgNi2,0.0
mvc-16001,AlWO3,0.0
mp-3547,MgSiO3,5.415499999999999
mp-617291,Mn5Ge3,0.0
mp-11924,Rb2TaCuSe4,2.0001
mp-1023319,CaYMg6,0.0
mp-1038427,Mg30GaBO32,2.1316
mp-18896,V6O13,0.0
mp-10485,BaLiSb,0.6946999999999997
mp-780591,Fe4O7F,0.0
mp-772302,Mg2FeO4,0.0
mp-865337,Lu2NiIr,0.0
mp-765529,Li2MnCoO4,0.0
mp-850095,Mn12O5F19,0.0
mp-1078331,Sb2Te3,0.1661999999999999
mp-557739,CoBiO3,0.8266999999999998
mp-770790,Li2FeNi3O8,0.0
mp-1080508,La(GePt)2,0.0
mp-696673,Cr7Se8,0.0
mp-20998,LiCaPb,0.0
mp-566713,ScCr2Ag(H2O5)2,1.8005
mp-15543,NaLiZr(Si2O5)3,5.202999999999999
mp-19383,Ti4Mn(PO4)6,2.4759
mp-754341,Ho2TeO6,3.1026
mp-765608,Na7Mn11O24,0.5909
mp-24195,MgP2(H8O5)2,5.6498
mp-573465,Ag5Te2Cl,0.9584
mp-669914,PrTlPd,0.0
mp-1025321,Rb2Cr(BrCl)2,0.0
mp-639478,SiO2,5.5486
mp-1077443,NdScSb,0.0
mp-849760,Al11AgO17,3.196
mp-690977,NaP3(PbO3)4,3.2891
mp-705502,NaCa9TaTi9(SiO5)10,2.9149
mp-32959,H2O,5.275399999999999
mp-558042,Sm3CuSnS7,1.6872999999999996
mp-10636,SrSb2,0.0
mp-853225,Li2Cr(SO4)2,2.2486
mp-1059288,Lu,0.0
mp-1099048,CaHfMg14O16,0.0
mp-867923,ScGaPt2,0.0
mp-763066,Li6Fe3Co7O20,0.0
mvc-5656,CaCoAsO5,0.9983
mp-722674,K4Tc2H6C8O21,0.5076
mp-1029166,Te4MoW3S4,0.11129999999999997
mp-1096099,LiTlAg2,0.9089999999999998
mvc-5127,VZn(SiO3)2,1.5693
mp-19936,Sc(MnGe)6,0.004700000000000593
mp-765891,LiNi5O5F,2.2296
mp-763167,FeOF,0.3927999999999998
mp-1080083,PrPOsO,0.0
mp-984714,AgAsS,0.5333000000000001
mp-1097492,Sr2PdPt,1.0780999999999998
mp-779371,Li3MnV(PO4)3,0.38480000000000025
mp-1074932,Mg3Si4,0.0
mp-27564,Na4B2O5,3.6854
mp-21820,Yb2Sn5Pt3,0.0
mp-1094459,Mg5Zn,0.0
mp-774386,Li2Cr3P4(HO4)4,2.8400000000000003
mp-5540,SrB4O7,7.117000000000001
mp-973895,Ni3H,0.0
mp-19238,Co(PtO2)3,0.3764000000000003
mp-600002,SiO2,5.4577
mp-866020,YbSmHg2,0.0
mp-570942,La3C3Cl2,0.030899999999999924
mp-38971,Eu(YS2)2,0.4527999999999999
mp-1022643,KMg6Zn,0.0
mvc-8235,CaBi2O5,0.0
mp-646824,Ca3Ag8,0.0
mvc-7922,Cr3(FeO6)2,1.8149
mp-504812,Hf3P,0.0
mp-11382,NdFe5,0.010299999999999976
mp-977310,OsAu3,0.0
mp-766967,Li2Mn3(Si3O8)2,2.8647
mp-775597,Li3Cr2(PO4)3,2.7254
mp-775054,Ti3Mn3(TeO8)2,0.2400000000000002
mp-540173,LiV(PO3)4,2.2747
mp-770223,Li2MnV(PO4)3,0.9814
mp-762796,LiFeSiO4,2.8989
mp-764645,Li3MnF7,1.4076999999999995
mp-15960,Li5AlO4,4.662000000000001
mp-1033371,Mg6NbCrO8,0.0
mp-19417,TiFeO3,2.0331
mp-13596,K2ZrF6,5.694
mp-1029144,Te2MoWSe2,0.06750000000000034
mp-1098713,Mg30AlCrO32,0.0
mp-28224,Hg2AsCl2,1.3038999999999998
mp-772981,Li2Zn3(Ge3O8)2,2.5146000000000006
mp-761042,NaCu(PO3)3,0.5954999999999997
mp-1097470,LiLaTl2,0.0
mp-1094347,MgTi,0.0
mp-1077866,BaZnBO3F,3.742
mp-721896,H4CSN2,3.2851
mp-694931,Sr2CoWO6,1.7524000000000002
mp-6036,CaCu3(RuO3)4,0.0
mp-35,Mn,0.004899999999999238
mp-757884,Li2Sn3(P2O7)2,2.5153000000000003
mp-676990,Ba7(Al3Te8)2,0.0
mp-743545,CrP3H18C6(SO)6,2.5998
mp-504476,Cu2PO4F,0.02810000000000024
mp-11952,KHg11,0.0
mp-780885,LiMn3P3O11,3.1411
mp-11560,TiSiRu,0.0
mp-25610,Ni2P3O10,0.012599999999999945
mp-641587,Fe21(MoC3)2,0.0
mp-754150,La3GaO6,3.8351000000000006
mp-571579,CdI2,2.4388
mp-643710,Cs3B12H12I,4.535
mp-1028124,CaMg14Ga,0.0
mp-1078132,La2Fe(SeO)2,2.2292000000000005
mp-1094874,ZrSn,0.0
mp-962064,NaYSn,0.10179999999999988
mp-862952,PmNi2Sn,0.0
mp-769488,Na5Fe2P2(CO7)2,1.3887999999999998
mp-782050,Ba4PdO6,1.2879
mp-770710,Li3Mn7O16,0.0
mp-780006,Rb2MgH12(SeO7)2,4.1484
mp-683875,TeS7Br2,2.2247
mp-775275,Mn3Sb(PO4)6,0.0
mp-779599,DyTiO3,0.0
mvc-5135,ZnFe(SiO3)2,2.9256999999999995
mp-1097392,Hf2MnTc,0.057700000000000085
mp-862697,Er2MgGe2,0.0
mp-778229,Li9Cr3(WO4)7,0.0
mp-1306,ThAl3,0.0
mp-574279,TlIn5Se7,0.3414000000000001
mp-776733,Li3VF6,2.5067
mvc-12027,MgV2O4,1.2110000000000003
mp-1026653,NaMg14Cd,0.0
mp-859129,Li5Si2BiO8,2.7601
mp-41732,BaLa2TiCr2O9,1.2583000000000002
mp-978678,Sm(BOs)2,0.0
mp-861584,VPO4,0.0
mp-982040,KBiO3,0.0
mp-30639,Th2Fe7,0.0
mp-861176,Li2FePO5,1.6272999999999995
mp-28151,Ho3Ni19B10,0.0
mp-763923,Co3(OF2)2,0.4739
mp-1034587,Mg14SiBiO16,0.0
mp-759367,YbNdO2,0.0
mp-1017350,Mg6SiMo,0.0
mp-1094746,SrMg3,0.0
mp-23750,SiH9C4F3,6.5115
mp-1060982,CsB,0.0
mvc-9854,LaMgMnCrO6,0.9613000000000004
mp-1075576,Mg5Si6,0.0
mp-1070789,CrAu4,0.0
mp-849764,H28Pt2Br5N9O2,2.6863
mvc-3748,MgWF5,3.6712
mp-780178,Li8TiMn3(PO4)6,1.5922
mp-1039508,Ce2Mg,0.0019000000000000128
mp-849690,LiFe4(BO3)4,1.7271
mp-773617,Fe6O5F7,1.4227999999999998
mp-568646,Ta3Si,0.0
mp-1094432,MgZn2,0.0
mp-777210,LiFe2OF5,1.7394999999999998
mp-566150,In2Cu3(PO4)4,0.14280000000000026
mp-704836,CaTiSiO5,1.395
mp-2628,DyCo2,0.0
mp-989588,LaOsN3,0.0
mp-1024087,Zr63S128,0.0
mp-19693,K2Zn2(MoO4)3,3.6459
mp-1075717,Mg5Si9,0.0
mp-1073409,MgSi2,0.0
mp-866832,Ca2SnS4,1.7379000000000002
mp-775304,Na9LiFe10(SiO3)20,2.7449000000000003
mvc-10139,CaCu2(BiO4)2,0.0
mp-1027706,Te2Mo3WS6,0.0
mp-1013559,Sr3As2,0.0
mp-1095798,CuNiPd2,0.0
mp-675290,Nb9IrSe20,0.0
mp-1061079,PuAs,0.0
mp-33618,AgBiSe2,0.007799999999999584
mp-775775,Li3V4FeO8,0.8262
mp-762157,Li5Cr2Fe3(PO4)6,1.2134
mvc-11196,AgN,0.0
mp-25557,MnAsH2O5,1.4678
mp-775657,Li4Ti2Co3Sn3O16,0.7030000000000003
mp-978662,Sc6Al16Ir7,0.0
mp-566325,KEu(MoO4)2,0.0
mp-1033996,HfMg14TiO16,0.0
mp-676566,LiNbAs2,0.0
mp-704203,Li2VP4O13,1.8286
mp-1028871,Te2MoW3(SeS2)2,0.0
mp-780509,Li3Mn4(BO3)4,0.13590000000000013
mp-646967,Ca3Mg3(PO4)4,5.0058
mp-767987,LiNiPO4,3.3388000000000004
mp-1039208,Ca2Zn,0.0
mp-1030853,RbMg6SiO8,0.0
mp-1079645,K2CdSnSe4,1.6857
mp-504923,V2Zn4O9,2.593
mp-1093708,Ti2MoPd,0.24519999999999964
mp-764523,Li7Fe8(BO3)8,0.8369999999999997
mp-614383,InAg(WO4)2,2.3544
mp-643577,MnGeO3,1.3076
mp-774073,LiV2(SiO4)2,0.8243
mp-1074192,Mg4Si7,0.0
mp-566025,VSnPO5,1.1692
mp-777526,Fe10O19F,0.0
mp-31056,Dy3InN,0.0
mp-752425,Dy2Ti2O7,2.9696
mp-752533,SrLa2O4,2.7904
mp-19618,Zr2P2WO12,3.7457
mp-774125,LiNbFeO4,0.7841999999999998
mp-631534,NaSrRe2,0.0
mp-765674,Na9Ni7O16,0.1091000000000002
mp-505249,Th(NiP)2,0.0
mp-1077718,NdO2,0.0
mp-555207,BN(OF2)2,2.9938
mp-780922,Na5CrO4,0.6029
mp-541597,BaYb2CoO5,1.0893
mp-1096881,BaNb4(FeO7)2,2.8389
mp-1077072,GdS2,0.0
mp-31033,HfF4,5.402
mp-27788,TaPCl10,2.3345
mp-764449,Mn2Cr3O12,0.6347
mp-37888,In2HgTe4,0.0
mp-868586,LiMn(PO4)2,0.0
mp-1094427,Mg3Zn,0.0
mp-780494,Li10Mn3Cr3(CoO8)2,0.9534000000000002
mp-1031872,CaMg6NbO8,0.0
mp-1027135,TeMoWSe2S,0.0
mp-850013,VS2,0.0
mp-760546,LiCu2(CO3)2,0.0
mp-851314,Co3Ni3(TeO8)2,0.16469999999999985
mp-1028757,TeW2SeS2,0.0
mp-770046,Li4Cr3NiO8,0.3233999999999999
mp-540920,CaP2H20C4(N2O3)4,5.135599999999998
mp-30711,Nd2Zn17,0.0
mp-20030,U2InCo2,0.007099999999999441
mp-542745,PH6CNO3,6.0852
mp-1774,ErB2,0.0
mp-1093737,Hf2CoRh,0.0
mp-669547,Re2Si,0.0
mp-4836,Yb(MnSb)2,0.0
mvc-2833,Ca4Cu5(TeO6)3,0.011099999999999888
mvc-9857,LaMgCrWO6,1.8061
mp-542220,Cs3As,0.0
mp-568912,Be12Nb,0.0
mp-13272,BaAlGe,0.0
mp-1033429,BaMg6CrO8,0.0
mp-677027,NaCa9TaTi9O30,2.4407
mp-684829,Co27Se32,0.0
mp-27628,Te3Cl2,1.3481999999999998
mp-698313,Rb2CuH4(C2O5)2,0.7825
mp-1094742,MgCd5,0.0
mp-2206,LuCo2,0.0
mp-849270,Ti17(NO4)6,0.0
mp-21287,Gd(SiAg)2,0.0129999999999999
mp-733844,Na3GaP2H2O9,3.9887000000000006
mvc-5273,CaTi2O4,0.0
mp-567789,InI3,2.2746
mp-29873,Rb2CdCl4,3.1706
mp-645655,TeMo3Se7I6,1.0757
mp-5905,Y2BeO4,4.1009
mp-572409,Ga2RhC4Cl7O4,2.0192
mp-1363,Na2Au,0.0
mp-1019898,LaPO4,4.6606000000000005
mp-767632,VPO4,2.0714
mp-1094192,Mg2Sn,0.0
mp-1026645,NaHfMg14,0.0
mp-761441,Li4Mn2Fe3Co3O16,0.2768999999999999
mp-767221,LiFe2(PO4)2,1.4302
mp-865866,LiZrPt2,0.0
mp-25797,SrV2P2O9,1.5126
mp-1016318,SrMg6W,0.0
mp-29413,Rb3Nb2Br9,0.0
mp-558588,BaPt2S3,1.3299999999999996
mp-774223,K2H2OsCCl5O2,0.5613
mp-989649,CaMoN3,0.0
mp-861691,FeOF,1.2988
mp-21330,EuAgAs,0.04319999999999968
mp-505502,Ce(PRh)2,0.005300000000000082
mp-1023160,SrCaMg6,0.0
mp-1795,NbF3,0.0
mp-1028731,TeW2Se3,0.033199999999999896
mp-9047,RbBS3,2.3486
mp-1072586,SmCdNi4,0.0
mp-541174,K3Cr(HO)6,3.1910000000000003
mp-1073454,MgSi2,0.0
mp-17650,KGaS2,2.5331
mp-640045,Ti8Bi9,0.0
mp-675013,Na(Ce2Se3)4,0.0
mp-1098603,HfMg30CO32,0.0
mp-4595,VFe2Si,0.0
mp-1008349,Co3Ni,0.0
mp-773996,Li2CrO4,2.4691
mp-866936,CaSnS3,0.2488000000000001
mp-779884,Sr5W3O14,2.4118000000000004
mp-40677,KBa4Ti5O14F,1.3418
mp-35909,AgBiI4,0.9912
mp-1030240,Te4Mo3WS4,0.0
mp-763271,Mn5(FeO3)4,0.32250000000000023
mvc-9427,CaTi2(PO4)2,0.0
mp-777779,Li4Mn(TeO4)3,0.4299999999999997
mp-1040380,KMg30BO31,3.2361000000000004
mp-669350,Rb5Mo18S19,0.0
mp-706281,NaH4CNO2,5.8252000000000015
mp-777860,Li2FeF6,0.1775000000000002
mp-640556,SiO2,5.5713
mp-764707,Li3MnFeCo(PO4)3,1.9995000000000005
mp-20044,La(NiAs)2,0.0
mp-1078545,ErAlPd,0.0
mvc-8141,CaSn(GeO3)2,1.8659
mp-866186,Ti3Zn,0.0
mp-606703,Ce4(GeS4)3,0.0
mp-999517,MnN,0.0
mp-14407,Rb7NaGe8,1.3438
mp-1079059,Er2InAu2,0.0
mp-18337,Be3N2,3.3129
mp-1097502,TiAlTc2,0.0
mp-23256,BCl,0.9004000000000001
mp-15998,RbV(CuS2)2,1.1576
mp-1099124,NaMg14MnO16,0.8067000000000002
mvc-439,Sr2YAlFe2O7,1.3778999999999997
mp-761454,Sn(WO3)3,0.0
mvc-959,CaCrO2,0.0
mvc-9216,Mn(GeO3)2,0.6769000000000001
mp-1019789,K3B(SO4)3,5.2623
mp-780321,Li3Cu3(PO4)2,0.7003000000000004
mp-1096478,CaScHg2,0.0
mp-767831,LiFe2(PO4)2,1.5931000000000002
mp-1077706,Cr2Co,0.0
mp-1077045,Ti2H,0.0
mp-3105,LuBPd3,0.0
mp-767482,Li6ScFe5(SiO3)12,2.7659