mpid,formula,gap pbe
mp-5323,CeAlO3,0.0
mp-694851,LiMnO2,0.8898999999999999
mp-765880,Mg3Fe2O5,2.2009
mp-28153,Ca(AuF6)2,1.5298999999999998
mp-1080070,Ti3Pd5,0.0
mp-1098812,Mg30CdFeO32,2.8197
mp-30662,Zn3Ga4Pd7,0.0
mp-1074916,Mg7Si4,0.0
mp-571039,CaAlPd,0.0
mp-565926,NaMn(SiO3)2,1.0161999999999995
mp-669923,UGa,0.0
mp-30790,ZrMo3,0.0
mp-771928,Li3Ti4MnO12,0.0
mp-567082,Ti4As3,0.0
mp-759707,Sb4O5F2,3.0228
mp-28632,Ga(Bi3O5)4,2.3576
mp-13630,Rb3NaBe2F8,6.617800000000001
mp-640044,Pu2SnPd2,0.0
mp-961687,ZrSnPd,0.4710000000000001
mp-21282,Na2SO3,4.908899999999999
mp-553242,NdBi2BrO4,1.2198999999999995
mp-761633,Li3Mn(CoO3)2,0.0054999999999996154
mp-17234,KTiP2O7,0.13399999999999945
mp-675813,Sm2Th3O9,2.8338
mp-759161,H21C6N2Cl3,5.3657
mp-15600,K2Ca2(SO4)3,5.5099
mp-705588,Fe8O9,1.1978000000000004
mp-24966,LaFe3(BO3)4,2.3041
mp-770256,Li4V2(SiO4)3,1.6149
mp-972524,SmSiAg,0.0
mp-705291,LiCrP2O7,2.8553
mp-639863,CeGaPd2,0.0
mp-558144,CuH10(CO4)2,0.8153
mp-991284,V3Te4,0.0
mp-730945,KAl2P2H5O11,5.087899999999999
mp-6793,BaLa2ZnO5,3.1916
mp-979956,Yb3Mg,0.0
mp-605173,As3H9RhC3(BrO)3,2.0084
mp-571370,Fe2NiP,0.0
mp-32662,WO3,1.4691
mp-985561,Ac3Sc,0.0
mvc-6209,YSn3F15,2.3372
mp-1100009,Sr4Ca4FeCo7O20,0.0
mp-865143,BaYbCdSb2,0.7040000000000002
mp-8207,Zn(PtO2)3,0.3113000000000001
mp-541450,In2(SO4)3,3.754
mvc-8793,Fe(Si2O5)2,1.0807
mp-780125,LiCr2P3O13,1.2957999999999998
mp-777517,Ti3Cu2Ni(PO4)6,0.0
mp-631410,CdNiP,0.0
mp-999378,NbNi3,0.0
mp-556867,K2PrZr(PO4)3,4.4301
mp-561248,SmCuTeS,0.09370000000000013
mp-646071,Li(YbGe)4,0.0
mp-1080352,CeSe2,1.0067000000000004
mp-560236,MgF2,6.2865
mp-763548,LiP3W2O13,3.1484
mp-13643,Er2Ge2O7,3.7279
mp-5561,Ho(CrSi)2,0.0
mp-24929,Cr2CdH14(NO2)4,2.8216
mp-19485,Ba5Gd8Mn4O21,2.059
mp-31321,La(C2N3)3,3.5544
mp-5069,La(MnSi)2,0.0
mp-638049,SiO2,0.0
mp-767214,Li2AlPCO7,5.7136
mp-849694,Li5(FeO2)4,1.1427999999999998
mp-975059,MnTl3,0.0
mp-2650,P4S7,2.7617
mp-608320,NbNi2BO6,2.7913
mp-687091,Rb2U2Mo3O16,2.3517
mvc-1969,Ba2ZnCuSb2F14,0.9026
mp-643394,NaInH8(NF3)2,5.0077
mvc-3169,Ba2Mn3Tl2O10,0.0
mp-680717,Tm(BO2)3,5.7593000000000005
mp-20472,LaRuO3,0.008000000000000007
mp-771807,Li2Mn3NbO8,0.7198000000000002
mp-23827,Sr7(H6Cl)2,3.8615
mp-560853,Tb3Si2S8I,2.4541
mp-7848,AlPO4,5.8147
mvc-9276,CaPr(CuO3)2,0.0
mp-1023482,Mg6AlCu,0.0
mp-1023517,RbMg15,0.0
mp-772343,LiVNiO4,2.8561
mp-625819,H8N2O,3.894
mp-917786,EuAl2,0.0
mp-647035,La4C5Cl2,0.0
mp-29428,Ta(TeCl3)2,1.1933
mp-27396,NiCl2,0.9163
mvc-10632,BaCrF7,0.0
mp-1096599,NaCd2In,0.02079999999999993
mp-772661,Li4MnSn3(PO4)4,2.9147
mp-1099868,KNa3V2(MoO5)2,0.0
mp-1096897,CeCuPb,0.0
mp-771513,Na3FeSiCO7,2.7053
mp-1006324,Ce(YS2)3,0.0
mp-5457,Pr3Co11B4,0.0
mp-975554,Pu3Sc,0.0
mp-762184,LiMn2(CO4)2,0.4229000000000001
mp-752584,Na5Cu7O13,0.0
mp-21208,RhF3,0.5624
mp-1038444,HfMg30GaO32,0.2705000000000002
mp-758151,Li3Ti(PO4)2,0.22889999999999944
mp-779376,Na2V2O5,0.9734
mp-580925,P(W2O7)2,0.0
mp-22867,RbBr,4.1927
mp-974950,Rb3Li,0.0
mp-1099114,CaMg6Co,0.0
mp-984700,CeY3,0.0
mp-23263,LaBr3,2.9248000000000003
mp-505242,Ru(OF3)2,0.9070999999999998
mp-695475,Ca3YGa3B4O15,3.9961
mp-961665,MgScGa,0.055400000000000116
mp-1039782,NaMg30WO32,3.1826
mp-1026431,Mg14BiB,0.0
mp-720299,ZrCuH8(O2F3)2,0.8694999999999999
mp-3241,Sr(CuGe)2,0.0
mp-11293,ZrCdCu2,0.0
mp-1036172,RbMg14MnO16,0.5556000000000001
mp-21568,BaSm2CuO5,0.0
mp-546910,CaSnO3,0.0
mp-778634,Tb2WO6,3.2092
mp-30665,Ga17Rh10,0.0
mp-765955,Li2CuSiO4,0.08440000000000003
mp-763848,Ti3Fe9O16,1.2658999999999994
mp-569052,AgSe3I,1.3964
mvc-9149,CaNi2(PO5)2,0.0
mp-770893,Li4Fe2O5,1.5990999999999995
mp-1020947,Y(PO3)3,5.8611
mvc-9032,CaLaFeWO6,2.3731
mp-1028328,Mg14VSn,0.0
mp-554988,Ag2Ge2O5,0.7531000000000001
mp-861549,Mn11ZnO16,0.6609999999999999
mp-766109,Li11V12(CoO8)4,1.0219000000000005
mp-763062,LiNiPO4,3.3739000000000003
mp-1022207,Mg6FeC,0.0
mvc-8819,Si4NiO10,0.0
mp-12119,Cs(FeSb)2,0.0
mp-31135,Si19Te8,0.8865999999999996
mp-1026522,Mg14NbCd,0.0
mp-977283,MgRe3,0.0
mp-558740,Dy3CuGeS7,1.8098
mp-567799,Ca14AlSb11,0.9102999999999994
mp-857352,Na4Bi2O5,2.1576
mp-23446,GeBi2O5,2.5396
mp-979982,YbPu3,0.0
mp-982595,Na3Re,0.0
mp-777966,LiV2(OF)3,1.1042999999999998
mp-780033,TbNbO4,3.4525
mp-770836,Ba5Sc6O14,3.6435
mp-765889,Ga2CoO4,1.7927
mp-767602,La2Ti2CrO9,0.8291000000000004
mp-690537,Co2Bi11O20,1.0501000000000005
mp-2195,LuMg,0.0
mp-780746,Mn6O7F5,0.0
mp-757981,Na2SnGe2(HO4)2,2.4186
mp-555882,K2FeF5,3.6824
mp-752927,LiAgF2,1.6817
mp-1094594,LiMg,0.0
mp-1023074,YMg6Mn,0.0
mp-601877,LiScMo3O8,0.0
mp-771548,Li5Mn2Ni5O12,0.0
mp-1075649,Mg5Si9,0.0
mp-777893,LiVF3,2.6218000000000004
mp-556714,BaCu6(GeS4)2,0.7574999999999994
mp-767706,LiV2F7,2.0983
mp-1037595,NaYMg30O32,4.5238000000000005
mp-638035,SiO2,0.0
mp-16819,ZnTeO3,3.4996
mp-696225,K3P2H7O10,4.8991
mp-762422,Li4Fe(PO3)6,4.3787
mp-38035,SrCO3,4.6569
mp-1026383,KMg14Si,0.0
mp-555023,KCa4(BO3)3,4.5893
mp-763719,LiMn2(PO3)5,4.0219
mp-555269,Ag3SbS3,1.5109000000000004
mp-7929,Rb2PtS2,1.2521
mp-8979,TaInO4,3.5676
mp-542977,LaFePO,0.27059999999999995
mp-568388,BiI,0.8279000000000001
mp-554574,Sb4Au(Xe2F11)2,0.38080000000000025
mp-707312,SrH6C2S2N2O3,4.3178
mp-1013953,LiCo2P2O9,0.04780000000000007
mp-1033868,Mg14CrBO16,0.0
mp-1017454,CeMg6Sb,0.0
mp-560806,Zn2In2S5,0.0
mp-1038488,Mg30CdBiO32,0.0
mp-866026,ErNbOs2,0.0
mp-1106,Sr2Si,0.3466999999999998
mp-776104,K2O,0.8928999999999999
mp-1034527,Mg14VCrO16,1.0565000000000009
mp-555064,Cd(CO2)2,3.298
mvc-1930,Ti9Zn2O13,0.0
mp-779753,LiV4OF11,1.3015
mp-758558,SbNO,0.0
mp-1093930,KTl2Pb,0.09499999999999977
mp-1075569,Mg5Si6,0.0
mp-11305,Li2CdPb,0.0
mp-676317,Rb2ZnCl3,3.1934
mp-634896,YOF,5.0138
mp-773218,V2FeO6,1.7192
mp-31018,SrAgBi,0.0
mp-699914,Mn2PC11SO8F9,3.1308
mp-542550,Cs2Si2Se5,2.5424
mvc-6713,Ni3(AsO4)4,0.0
mp-777017,Li8Mn7Ni(PO4)12,0.0
mp-1020023,Li3AlSiO5,4.7208000000000006
mp-764658,LiFe2(BO3)2,1.6821
mp-1038693,CsHfMg30O31,0.0215999999999994
mp-650601,K4Nb2Si8O23,3.7873
mp-8275,CdGeO3,1.4172
mp-606777,Eu(InAu)3,0.0
mp-20995,Eu4As3,0.029199999999999893
mp-1078625,Tm2InAu2,0.0
mp-781055,Fe3OF5,0.0
mp-1029446,CaGeN2,0.0
mvc-16738,Li(TiS2)2,0.0
mp-768171,Li8SbS6,0.0
mp-560097,CaTeO3,3.2538
mp-12597,TaP,0.0
mp-779308,SrLiLa7(CoO8)2,0.5669000000000004
mp-978273,Mg3Cd,0.0
mp-560886,SrSi2O5,4.0583
mp-505541,V5As3,0.0
mp-1069461,HoSi3Ir,0.0
mp-722188,NaCa4Si8H16O28F,4.8688
mp-1034668,Mg14NiBiO16,0.9655000000000004
mp-704727,Sr5V3O12F,3.9987
mp-10890,LiAl3,0.21879999999999988
mp-1018708,GdTlZn,0.0
mp-862661,LiEr2Ru,0.0
mp-623245,RbMnF3,3.4267
mp-647281,Sm2B4O9,5.3794
mp-541593,ZrPb2F8,5.2222
mp-18753,Na3Mo(OF)3,3.8927
mp-579278,NaV3(FeO4)3,1.1299
mp-1040122,RbLiMg30O31,2.2111
mp-38494,Y4AsSe3,0.0
mp-1099065,Mg14MnCoO16,1.0755
mp-776646,Na3CoO3,1.5319999999999998
mp-18717,SrVO3,0.2446999999999999
mp-780310,Fe5(O4F)2,0.0
mp-18633,K8SnSb4,0.31899999999999995
mp-1087483,ThCuPO,0.0
mp-3931,SmSF,1.2296999999999998
mp-29339,Lu(NbCl3)6,0.13280000000000006
mp-1098878,HfMg30CuO32,0.0
mp-1029565,Na3W2N5,2.2342000000000004
mp-1022984,Mg6TiMn,0.0
mp-540591,Na2FeH4C5(N2O)3,2.7696
mp-21904,PbS2O3,3.5394
mp-707787,Na6TeP6(H2O5)6,0.9691999999999998
mp-774190,Li5V3P8O29,0.9132
mp-1077725,SmRu2,0.0
mvc-15898,MgFeO3,0.0
mp-680690,LaCu3(RuO3)4,0.0
mp-771752,Na3CrBPO7,2.8333000000000004
mp-542787,FeH6(CO3)2,3.4333
mvc-9202,TiMo(PO4)3,1.3522999999999998
mp-762599,FeNi(PO4)2,0.0
mp-866142,TiGaIr2,0.0
mp-1031107,LiHfMg6O7,0.0
mp-10457,HfSiPd,0.0
mp-540541,Li2W2O7,3.996
mp-24342,LiBeH3,2.3768
mp-557964,Li9S3N,2.4272
mp-21884,EuGa4,0.000199999999999978
mp-744328,VH7N2O5,2.5029
mp-767454,PWO5,1.6157
mp-757205,Y2Th5O13,2.7174
mp-11531,VNi2,0.0
mp-773241,Na3NiPCO7,3.6486
mp-561620,Ag3AsS3,1.6949999999999994
mp-753541,LiCuF4,1.0145
mp-1079044,TmNiGe3,0.0
mp-1038937,Ca2Mg,0.0
mp-774233,Co(IO3)2,2.3532999999999995
mp-1096840,Ba,0.0
mvc-5187,Ca(BiO2)2,1.9661000000000004
mp-610522,Mn2As,0.0
mp-1037200,YMg30NbO32,0.29769999999999897
mvc-11984,CaCr2O4,2.2317
mp-775018,TiFe(PO4)2,1.783
mp-1030578,TeMoWSe2S,0.0
mvc-10373,Be3Si3(SnO6)2,1.4817
mp-765923,Mn2F7,0.2123
mp-565720,BaTbMn2O6,0.0
mp-1098968,Mg30TiSnO32,0.0
mp-684798,Ag2Te,0.0
mp-998314,CsInI3,0.0
mp-672394,YbIn4Ni,0.0
mp-775286,Li2Fe3NiO8,0.6276999999999999
mp-542948,CsYbCoSe3,0.0
mvc-9938,CaHo(SbO3)2,0.0
mp-3802,Ta4AlC3,0.0
mp-1095055,Fe(NF2)3,1.5557
mp-1094009,YAgO3,0.0
mp-778732,Li2MnF4,4.0178
mp-556551,GdSeClO3,2.9930000000000003
mp-1099192,Mg14ZnFeO16,2.4109
mp-571297,AgN3,1.6377000000000002
mp-3487,Ca3(PO4)2,5.515300000000001
mvc-14006,AlMoO3,0.0
mp-761472,Co2CuO4,0.0
mp-1073590,MgSi2,0.0
mp-1096191,Sr2TlZn,0.0
mp-676685,LiNi9S10,0.0
mp-1097665,MgCo2Si,0.0
mvc-5770,Ca(CuO2)2,0.0
mp-8742,DyCoSi2,0.0
mp-1037500,BaMg30FeO32,3.7193
mp-744001,Fe2H13C6NCl2O11,2.3056
mp-557580,CdHg4C6S6(Br2N3)2,1.866
mp-540743,Th2Zn17,0.09830000000000004
mp-565801,HoMoClO4,2.7101
mp-976598,LiHf2Ir,0.0
mp-1036490,CaMg14SnO16,0.2182000000000004
mp-23199,BaCl2,5.2514
mp-754225,YbTiO3,2.3173
mp-1039198,Mg3Bi,0.2012999999999998
mp-4813,NbAlNi2,0.0
mp-1031065,KHfMg6O7,0.0589000000000004
mp-767181,Li3Mn2OF5,2.1431000000000004
mp-775395,Mn3Cr(PO4)4,0.18399999999999966
mp-8057,Ti3O5,0.0
mp-777226,Li2MnVP2(O4F)2,0.6129000000000002
mp-651706,Cu6AgBi12PbS22,0.0
mp-775209,Li2MnNb3O8,0.19350000000000026
mp-680293,Gd3Co29(Si2B5)2,0.010600000000000165
mp-24142,MgAlH4O2F5,5.8370000000000015
mp-17024,Ba2NbN3,1.9578
mp-557017,SiO2,2.5295
mp-1094837,Ce2Mg,0.0
mp-632927,CaUO4,1.9288
mp-556232,Na2CaMg(PO4)2,5.0991
mp-1023497,Mg15C,0.0
mp-649470,K3Nd2(NO3)9,3.4785000000000004
mp-1029959,Ca2MnN3,0.0
mp-554590,Cu3B7BrO13,0.0
mp-1093778,YAlPd2,0.2665000000000002
mp-17329,PrS2,0.3243999999999998
mp-745021,Sr2Mg2V3O14,0.7637999999999999
mp-975655,PrNiGe2,0.0
mp-19447,Cs2NaVO4,3.9493
mp-568928,Rb2FeI4,0.0
mp-29657,NaGe,0.6651999999999998
mp-626293,Sr(H8O5)2,3.1307
mp-1030514,Te2Mo3W(Se2S)2,0.0
mvc-8362,V(GeO3)2,1.6415
mp-675896,Ca2NdF7,5.2616
mp-1097274,K2RbAs,0.04739999999999967
mp-667372,Ba8Zr3(SbO6)4,2.9436
mp-1060962,TlC,0.0
mp-759715,KLi2Sb(PO4)2,3.4314
mp-505791,ReH8(Br3N)2,0.1066999999999998
mp-861646,ThCdRh2,0.0
mp-15619,GaAs,0.0
mp-762567,LiMn3(PO4)4,0.0
mp-1015582,CrN2,0.0
mp-976249,NdS3,0.0
mp-779096,Tm3TaO7,3.5119
mp-36,Sc,0.0
mp-632286,Sb,0.0
mp-771992,Na2Fe2C4SO16,0.0
mp-557393,K3AgC4(SN)4,3.5704
mp-763309,Li2CoSiO4,2.7283
mp-18899,Nd2MnNiO6,1.6208999999999998
mp-850762,Fe5O7F3,0.0
mp-771564,Mn(SO4)2,0.2713
mp-778655,Li2CoBO4,1.3407999999999998
mp-582518,Ba(Fe2O3)9,0.04959999999999986
mp-541975,Rb3Ta2S11,1.6649000000000005
mp-13125,PrCoGe3,0.0
mp-30077,K2GaSb2,1.1041999999999998
mp-764892,Li2Mn5F17,0.1835
mp-1416,NbF4,0.0
mp-761467,LiFePO4,3.1047
mp-1076438,La2Co2O5,0.6093999999999999
mp-1418,FeNi3,0.0
mp-24131,GdH3,0.0
mp-778584,LiMn2(CoO4)2,0.20630000000000007
mp-1034024,Mg14TiBO16,0.0
mp-505752,CsMnCr(CN)6,0.1422
mp-705467,MnPO4,0.3351000000000001
mp-780042,Li2CoOF3,1.0344
mp-29968,NbSeCl9,2.0713
mp-19157,LaMnO3,0.05030000000000001
mp-1094916,Ce2Mg,0.0
mvc-14274,ZnCr4O8,0.0
mp-9881,KAuSe,1.8992
mp-1095801,Y2ZnHg,0.0
mp-542496,Ca6Ag16N,0.0
mp-31152,CaGaPt,0.029300000000000107
mp-20206,ThIn3,0.0
mp-14323,Ba3Ho4O9,3.2561
mp-977378,ErCdAg2,0.0
mvc-10034,Ba2Mo2F11,1.9493
mp-756500,Sr2CaI6,3.7063
mp-772922,Al3P3H9C2NO13,5.1942
mp-766730,Li3Cr3(CoO6)2,0.8186
mp-1028293,Mg14NbV,0.0
mp-2164,Mo3S4,0.0
mp-774247,Na3FeBSO7,2.6907000000000005
mp-976401,Ge3Rh2Se3,0.7793000000000001
mp-1019532,BaAl4O7,4.1958
mp-764158,Na7Mn10O24,0.0
mp-1068510,In2Te3,0.0
mp-758096,SbOF3,1.9231
mp-565444,BaTb2Mn2O7,0.0
mp-558494,NdCrS2O,0.39950000000000063
mp-864908,MgTiIr2,0.013099999999999673
mp-755756,Y2TeO2,1.0487000000000002
mp-18757,Sr2CdWO6,3.3145
mp-2352,Na2O,2.0421
mp-639150,BaIn4Ir,0.0
mp-763630,Co2C2O7,0.6570999999999999
mp-20779,Li2CeSb2,0.002600000000000157
mp-1096420,Hf2NiOs,0.0
mp-767793,Li8MnO5F,0.7027000000000001
mp-22717,CaIn2Pd,0.0
mp-3416,Na3AlF6,6.9029
mp-867235,LiY2Ir,0.0
mp-1027580,MoSeS,0.6547000000000001
mp-866820,CaSnS3,0.0
mp-645929,Ni3TeMo2O11,2.7541
mp-1025250,RhF6,0.8929999999999998
mp-762829,LiMn3NiO8,0.11060000000000024
mp-774385,Fe5(OF4)2,1.3142
mp-773894,CaB2(H2O3)2,5.3586
mp-975050,Rb3Co,0.0
mp-1034191,KMg14TiO16,0.05040000000000066
mvc-1003,CaFe3(P2O7)2,3.7926
mp-769641,Li2VCrO4,1.6276000000000002
mp-3400,Lu(MnGe)6,0.0
mp-505018,Mn15(Br3O10)2,0.17090000000000005
mp-1097047,FeCu2BO5,0.0
mp-30768,Li7Sn3,0.0
mp-763563,LiCoSiO4,0.6967000000000001
mp-850035,FeS2,0.0
mp-1025237,Ba2RuO4,0.0
mp-1097386,AlCrTc2,0.015400000000000082
mp-9664,K3BP2,1.666
mp-558501,KBi6IO9,2.2881000000000005
mp-31313,K3PSe4,1.8282
mp-27904,FeSbS,0.5463000000000005
mp-763469,MnCdO2,0.0
mp-1022052,HfMg6Co,0.0
mp-557293,Li2CdSiO4,2.8338
mp-743898,CrP2H13(NO5)2,3.6096
mp-1097195,SrCaCd2,0.3865000000000003
mp-645893,Ce6In14Pt11,0.0
mp-545760,Rb4CO4,1.7482000000000002
mp-763408,Li3Co2(CO3)4,0.6729999999999999
mp-631362,SiTe2Os,0.0
mp-698365,MgH10C4(N2O3)2,4.785
mp-571500,Ho(FeB)2,0.0
mp-9363,RbNdS2,2.2646
mp-1039441,CaMg2,0.0
mp-864800,Yb2PdAu,0.0
mp-865079,TiZnPd2,0.0
mp-764037,Li10V5Cr3O16,1.1298000000000004
mp-570652,Hg6BiAs4Cl7,1.2948000000000002
mp-1036101,Mg14MnCrO16,1.5614000000000008
mp-29796,Ho(AlCl4)3,4.31
mp-20006,ZnPb2F6,3.9228
mp-1023928,MoWSe4,1.2658
mp-23809,RbScBP2HO9,4.8011
mp-7273,Te8Rh3,0.0
mp-559243,Nd2Ta2Cl2O7,3.0798
mp-765900,Ti6Co3O16,0.7956000000000001
mp-978495,SiB,0.0
mp-9060,RbPdF3,0.0
mp-29409,CIF7,4.6791
mp-23894,LiAs(HO2)2,3.9942
mp-1076189,Ba3Sr(Cu2O5)2,0.0
mvc-7049,SbS2,0.0
mp-1026976,TeMoWSe2S,0.0
mp-1075040,Mg3Si4,0.0
mp-1093916,HfZrCo2,0.0
mp-976809,Ni3S,0.0
mp-990084,Na2Cl,0.0
mp-774177,Li5V3P8O29,0.7105
mp-769213,Dy2(SeO4)3,3.0307000000000004
mp-865713,Li2TlBi,0.006599999999999717
mp-19543,Rb2Mn2(SO4)3,4.4946
mp-989576,YWN3,1.5852000000000004
mp-977546,Pm2ZnGa,0.0
mvc-8296,CaCoNiP2O9,0.15260000000000007
mp-42091,K3Sn2S3ClO12,3.9354
mp-1028016,CsMg14Zn,0.0
mvc-13571,La2ZnSbO6,0.0
mp-19575,Cr5O12,1.6967
mp-4394,Pr2Sn2O7,2.6358000000000006
mp-18793,LiCrO2,3.0001
mvc-5219,Ca2CrO5,0.3353000000000001
mp-556570,Ag4Se(IO2)2,0.7545000000000002
mp-4120,CaCuAs,0.0
mp-780688,LiCo2OF5,0.8269
mp-707907,MgH24C6N12(ClO6)2,5.4637
mp-16084,Pr3Co29(Si2B5)2,0.0037000000000002586
mp-775441,Li4V3Fe3(SbO8)2,1.0193000000000003
mp-1094855,La3Mg,0.0
mp-8806,Sr2Cu2O3,0.0
mp-999198,BMo,0.0
mp-571493,YbHgPb,0.0
mp-743616,K2FeH2OF5,3.8684
mp-560767,KNaTiO3,3.5352
mp-686543,NaSm9Si6(SO12)2,3.0660000000000003
mp-16889,Na6Sn2Se7,1.4178999999999995
mp-853206,Li3(CoO2)4,0.0
mp-765843,Li3Ni5OF11,3.4555
mp-616512,Y3Co2,0.0
mp-7917,HfGeSe,0.0
mp-783904,NiH20S2(NO7)2,4.6073
mp-677081,SrLa11Mg3Ga9O34,1.5107
mp-27461,CN,4.8639
mp-1019358,ThAsS,0.0
mp-1016641,Mg6CdMo,0.0
mp-12770,DySi2,0.0
mp-977540,CaBiPd2,0.0
mp-20110,Ce(GePt)2,0.005600000000000271
mp-866290,DySnRh2,0.0
mp-975288,RbNpO3,0.0
mp-982619,Ho3Tm,0.0
mp-28156,NaGdCl4,2.4818
mp-31363,K2TaCl6,0.0
mp-1025291,Ti(NbSe2)2,0.0
mp-568536,BaI2,3.0499
mp-676274,Tl9SbSe6,0.7409999999999997
mp-1026476,Mg14CdW,0.0
mp-557290,Na2Si2O5,3.8876
mp-706504,Li2W2O7,3.7139
mp-675161,NaYF4,7.206200000000001
mp-743728,Li3Ti3Fe(PO4)6,2.4059
mp-763057,Mn(CoO3)2,1.2121
mp-1016871,ZrHgO3,0.0
mp-1034309,Mg14NbSnO16,0.0
mp-35876,Ca(NdS2)2,2.0613
mp-12879,Tb2Si5Rh3,0.0
mp-1038732,CsMg30SbO32,2.5737999999999994
mp-622020,P(CN)3,4.4681
mp-770986,LiVBO4,1.5900999999999998
mp-1094523,YMg,0.0
mp-976143,PrDyZn2,0.0
mp-27173,P4Ru,1.2576999999999998
mp-999123,TbH3,0.0
mp-770043,Li4Ti2Cr3Co3O16,0.7677
mp-573202,K3Ta2Ag3S8,2.2936
mp-24916,GdCrO4,0.2676000000000001
mp-1027823,LiMg14Cu,0.0
mp-861265,LiNi(PO3)4,0.0
mp-7571,KNbF6,5.1345
mp-676536,KBiO3,0.1761999999999999
mvc-16626,Al(FeS2)2,0.0
mp-569686,La3C2I3,0.1368999999999998
mp-1017195,HfMg6Cd,0.0
mp-756424,GdLuO3,3.1346
mp-758944,LiBi(PO3)4,4.4348
mp-1095437,LuSeO3F,3.9702
mp-1098766,YMg30CoO32,0.9676999999999998
mvc-16562,Ca3Nb2CoO9,2.2592
mp-680211,Cu9Se4(Cl3O7)2,0.0
mp-1008617,YbAg2,0.0
mp-17966,KInP2O7,3.8447000000000013
mp-554343,K2CuSbS3,1.1907
mp-1072992,Mg2Si3,0.0
mp-1079686,BaHo(CoO3)2,0.0
mvc-10827,Sr2YAlSn2O7,1.1121
mp-680586,Ce5Mg41,0.0
mp-29289,BaPt2S3,0.9731999999999998
mp-686466,Pr16Si16N27Cl3O14,2.2198
mp-637377,Ti2In5,0.0
mp-21357,U2Fe2Sn,0.0
mp-850868,NbH8N2O2F5,4.5788
mp-696794,RbHSeO4,3.6244
mp-22498,CrSb2,0.012599999999999945
mp-763024,Mn6O5F7,0.024999999999999908
mp-769319,LiNb(OF)2,3.1688
mp-759541,Ba(PdO2)2,0.0
mp-756573,Cu(TeO3)4,0.0
mp-1079269,SiPt3,0.0
mp-11329,P2W,0.0
mp-12724,SrZn,0.0
mvc-7973,CaMnAs2O7,1.5539999999999998
mp-560875,K2Ge4O9,3.0055
mp-720529,KH28S4N7O16,0.5596
mp-570537,Ce2Br3N,0.0
mp-25751,K2Li2FeO4,0.4214
mp-12675,MnAu,0.0
mp-1023948,TeMoSe,0.4673000000000001
mvc-12540,Cr2O5,1.7574999999999998
mp-20107,MnCuAs,0.01839999999999975
mp-1028887,TeW2Se2S,0.0
mp-25775,Tl3(MoO4)2,0.0
mp-1029673,KCrN2,0.0
mp-20557,YSiNi,0.0
mp-32017,Li3Mn3(PO4)4,0.5955999999999999
mp-690824,SrH6C4O7,2.8852
mp-11033,TbAl7Au3,0.0
mp-14206,K3Ag3As2,1.2540999999999998
mp-30727,MgCdAg2,0.0
mp-1009014,LiCuO,0.0
mvc-14109,Al4(CoO4)3,0.038000000000000256
mp-762686,LiFeSiO4,2.3802000000000003
mp-30029,Ga3Ni13Ge6,0.00509999999999966
mp-743598,TiCdFe(PO4)3,2.2585
mp-770412,ScMn2O5,0.0
mp-4395,TbScGe,0.0
mp-764171,NaV2(PO4)3,1.3079
mp-672315,PC2S2N3,3.3084
mp-1094658,Mg2Ga,0.0
mp-1097284,AgSnRh2,0.0
mvc-12096,Ca(NiO2)2,0.0
mp-753171,Li2CuF4,0.5768
mp-1026496,Mg14CrCd,0.0
mp-627442,Ge7H18O23,2.6785
mvc-942,CaMn3(P2O7)2,3.7333
mp-1079636,DyNiSb2,0.0
mvc-2836,Zn4Sn5(TeO6)3,1.3579999999999997
mp-23008,PbBrF,2.617
mp-862842,LiPm2Pt,0.0
mp-1076496,SrCaMn2O5,0.0
mp-770549,Li4Cr3Cu3(TeO8)2,0.0
mp-631503,ZrAlW,0.0
mp-1094572,Mg2Sb,0.0
mp-865090,NaAcTl2,0.0
mp-867475,TaSnRu2,0.0
mp-705401,Li2Ni4P4O15,3.3233000000000006
mp-1016216,Mg3Si,0.0
mp-676562,Yb3Sm3S8,0.0
mp-1018153,HfAu2,0.0
mp-773430,NbV2O7,0.0
mvc-603,AlV(WO4)2,1.6323999999999996
mp-764587,LiFe2(BO3)2,1.4678000000000002
mp-1037910,Mg30MnCrO32,1.9595
mp-738597,H24RuC7S3NCl3O4,2.9703
mp-25004,BaNdMn2O6,0.14090000000000025
mp-2152,YNi5,0.009599999999999831
mp-622966,MnF2,3.0114
mvc-7051,SnS2,1.865
mp-765896,LiV3F10,1.761
mp-775735,Sr2CoCO3F5,0.9266
mp-17090,SrTlPS4,2.2811000000000003
mp-628810,K2EuGeSe5,0.20320000000000027
mp-1095818,YScPd2,0.0
mp-699253,K2H2C3S2O7F6,5.5227
mp-7126,TiSnSb,0.0
mp-4064,Ca(NiP)2,0.0
mp-772680,Li4Co5NiO12,0.0
mp-559826,ErCuS2,1.7449000000000003
mp-20751,Pu(CuSi)2,0.012499999999999293
mp-556659,La3TiCl5O4,3.4545000000000003
mp-763646,Sr3(CoO3)2,0.0
mp-1093810,MnAl2Ir,0.0
mp-864983,MnVRu2,0.0
mvc-5089,ZnCr2O4,0.6858999999999997
mp-1000588,U2IrC2,0.0
mp-962076,SrCdSi,0.0
mp-12009,YbCdCu4,0.0
mp-555598,KGd(PO3)4,3.2157
mp-1032059,Mg6CoBO8,0.0
mp-770354,Li3V3(BO5)2,0.7279
mp-775040,Li2MnSnO4,0.0
mp-1028210,Mg14AlSi,0.0
mp-1068985,SnCCl3,0.0
mp-775732,Li2MnFe3O8,0.0
mp-962074,YTlCd,0.0
mp-11231,YAl3,0.0
mp-976064,Ho6CoTe2,0.0
mp-865126,NaTlPd2,0.0
mp-3951,Ti2CuS4,0.0
mp-31828,Li3Fe3(PO4)4,2.2457
mp-1035709,Mg14NbZnO16,0.0
mp-764457,Na3FeO4,0.3168000000000002
mp-16356,TiNiGe,0.0
mp-1079048,V3PN,0.0
mp-13252,SnB4O7,3.9293000000000013
mp-778592,Mn6O7F5,0.17649999999999988
mp-571566,Li2ZnSi,0.0
mp-619330,CdMoPO6,2.0169
mp-699377,MnSiO3,2.4641
mp-611836,O2,1.2922000000000002
mp-1057139,Mn,0.0
mvc-7848,Ti4Zn(CuO4)3,0.0
mp-850226,Li8Mn7Fe(BO3)8,2.9057000000000004
mp-999566,Mn2CuSb,0.0
mp-780175,Li4Fe3P4(HO8)2,3.8515
mp-1036013,YMg14CuO16,0.5837999999999992
mp-765512,Li2CuF5,0.4738
mp-17359,CsTiP2O7,0.12650000000000006
mp-569751,AlPH8(CCl2)2,5.4006
mp-772055,Li6Ti2O7,2.9524
mp-767140,Sn2P2O7,3.0579999999999994
mp-626536,NbHO3,2.5130000000000003
mp-1019739,Eu2Ge(BO4)2,0.0
mp-977057,NpAs3,0.0
mp-1008872,MnFeTe,0.0
mp-771622,Li4TiMn3O8,0.21639999999999995
mp-1079361,YAlCu,0.0
mp-850071,LiMn3(BO3)3,0.16779999999999995
mp-605559,Na4VHO5,3.9674
mp-762581,LiFeSiO4,2.9611
mp-1028084,Mg14MnCd,0.0
mp-14410,Tl6TeO12,0.0
mp-1094437,Mg2Zn,0.0
mp-769047,Na4Bi2As(CO4)4,0.0
mp-651741,Cs2Re2Se5,0.7001999999999997
mp-1016108,TiZnN2,2.342
mvc-5538,MgBiAsO5,2.8587
mp-1095025,Pr(CrB3)2,0.0
mp-30933,ZrBi,0.0
mp-30055,Rb3BrO,0.4098
mp-1078978,Yb2CdGe2,0.0
mp-758533,Li3Sb(PO4)2,2.9071
mp-3323,SrZrO3,3.2114000000000003
mp-1027795,Mo3W(SeS3)2,0.5583
mp-1097113,Be2CuPd,0.0
mp-20087,Sr2SmTa(CuO4)2,0.0
mp-773945,Li7V7(P4O17)2,1.1273