mpid,formula,gap pbe
mp-16638,Nd2MgCu2,0.0
mp-1097885,LiCoO2,0.3685000000000001
mp-1012742,NaMn3P3O13,0.0
mp-571425,Ag2Hg7(P4Br3)2,0.7686999999999999
mvc-15458,ZnNiF6,1.5876
mvc-9558,Mg(AgO2)2,0.0
mp-27573,NaSb3F10,4.968
mvc-16459,Ca2VBiO6,3.0979
mp-13674,NaGeAu3,0.051200000000000134
mp-20123,Te2Au,0.0
mp-552966,Rb4CO4,0.8876
mp-1001786,LiScS2,1.4856999999999996
mp-17770,CsPr(PO3)4,5.2958
mp-762156,Li4Mn3Co3(NiO8)2,0.8929999999999998
mp-19023,YbCrO4,2.3211
mp-1026599,SrMg14Nb,0.0
mp-24863,GdCoO3,0.17539999999999978
mp-542148,Sb2N5F11,3.9603
mp-19445,LiLa4NiO8,1.5834
mp-862896,PmCdRh2,0.0
mp-566709,TiFe2O5,1.73
mp-757808,Sb(PO3)4,0.0
mp-1033561,RbMg6SbO8,0.0
mp-684726,La39Se56,0.0
mp-540872,AgSbO3,0.08709999999999997
mp-1079193,TiCuNi2,0.0
mp-753995,YTmO3,4.582000000000002
mp-21152,Pu2Mg,0.0
mp-768360,Li3(FeS2)2,0.0
mp-1079052,Er2CdGe2,0.0
mp-541569,Sr2Li3TaN4,2.1584
mp-20180,Mn3GeC,0.0
mp-505341,Ni2W3N,0.0
mp-962077,TiAuCl,0.0
mp-1021369,Mg6TiSi,0.0
mp-1718,ZrFe2,0.02439999999999997
mp-761625,Li7V3P8O29,0.0
mp-1080152,MoW3(SeS)4,0.9701
mp-558418,NaCrF6,0.0
mp-9774,Ba4Sb2O,0.6382000000000003
mp-1030198,Te2MoWSeS,0.0
mp-27714,H3OF,6.7352
mp-20108,CaIn4Pd,0.0
mp-1007976,Cs,0.0
mp-542221,MnH10SeO9,2.774
mp-560378,Ca3Ta4(O6F)2,3.8739
mp-971694,Ge3N2,0.37509999999999977
mp-8978,CsNbN2,1.5227999999999997
mp-2939,BaTbO3,0.0
mp-1039826,RbNaMg30O31,2.0361
mp-505692,Np5Ge4,0.0
mp-565358,V2Cd(PO5)2,1.7502
mp-1017263,Mg6BSb,0.0
mp-1783,MnS,0.013500000000000073
mp-1017086,CsSrMg6,0.0
mp-27291,PaCl4,0.010500000000000398
mp-4275,Sm(SiPd)2,0.0
mp-680395,Li3As7,1.3268999999999995
mp-618309,Bi2AuO5,0.0
mp-21176,KCeGeSe4,0.10860000000000004
mp-1028289,Mg14VCd,0.0
mp-864633,Nd2SnHg,0.0
mp-639480,SiO2,5.6231
mp-650451,Cs7Ni4F15,4.9957
mp-754693,Lu(BiO2)3,2.1004000000000005
mp-7139,N2O,3.3292
mp-1097132,Y2HgPb,0.1990000000000003
mp-560425,Sr2Cu(BO3)2,0.01930000000000032
mp-961683,LiMgP,1.8107
mp-673837,Ba8Bi4O17,0.7450000000000001
mp-769543,Li3Mn2(SiO4)2,0.0
mp-862811,Cs2KU2(Si2O7)2,0.0
mvc-7696,BaAlVCuO5,0.0
mp-5820,Ce(CoP)2,0.0
mp-780115,Li7Cr3Co(PO4)6,2.1361000000000003
mp-540986,Nd2Ni7P4,0.0
mvc-10512,CaCu2(NiO4)2,0.0
mp-540942,KDy2Cl7,4.5535
mp-760829,Na(CuO)2,0.0
mp-705086,CeTl5Ni2(NO2)12,0.4425999999999997
mp-27315,CaTiF6,4.609
mp-776890,Rb2O,0.9376
mp-541451,Ga2(SO4)3,4.33
mp-607,CeRu2,0.0
mp-556477,Lu2O3,4.2763
mp-540949,Ba3SrNb2O9,3.4284
mp-1037374,Mg30ZnSnO32,1.9640999999999995
mp-768221,YBiO3,3.0834000000000006
mp-862775,LiInRh2,0.0
mp-6548,K2La2Ti3O10,2.0435
mp-28534,CaInBr3,3.136
mvc-11614,CaFe(SiO3)2,3.0855
mp-769526,Li7MgNi7O16,0.10109999999999976
mp-1096323,MgSiRu2,0.0
mp-18460,K2Si6GeO15,4.5307
mp-1035758,KMg14BO15,1.5618999999999996
mp-766404,Ba8Cu8O19,0.0
mp-7088,Ta2C,0.0
mp-504371,LiNi6P7O24,3.6825
mp-1095826,MnCdPd2,0.4181999999999997
mp-771703,LaAlO3,4.1704
mp-865177,GdNiB4,0.0
mp-762545,Li2FeSiO4,2.7797
mp-28490,Tl3BSe3,1.226
mp-1018793,LuSe2,0.0
mp-29825,K2Si2O5,4.3282
mp-571434,La(AsPd)2,0.0
mp-862875,ThGaAu2,0.0
mp-24906,UCr2O6,1.0302000000000011
mp-24096,NdH2,0.0
mp-28029,TcP3,0.4488000000000003
mp-761485,Li2Mn(SiO3)2,2.6074
mp-540430,CrP2O7,0.007600000000000051
mp-559835,BaTaF7,5.691
mp-30196,ErCuP2,0.0
mp-1075790,Mg3Si2,0.0
mp-1026845,CsKMg14,0.0
mp-19108,Ca2MnWO6,2.4003
mp-771709,V3Fe2Co(PO4)6,0.0
mp-1093738,TaGeRu2,0.0
mp-579356,Zr(WO4)2,3.1688
mp-31986,Li3Mn2P5O16,4.2599
mp-1094450,Mg5Zn,0.0
mp-762748,Li6VNi3(PO4)6,0.0
mvc-11972,CaHoMn2O6,0.0
mp-541073,SmSI,2.4395
mp-867197,LiGaNi2,0.0
mp-777500,V3(O2F)2,0.8424999999999998
mp-1038976,CeMg5,0.0
mvc-16058,MgV4O10,1.0831
mp-972741,Si3P,0.0
mp-1087501,NdGe2Rh,0.0
mp-1098639,Mg30TiAlO32,0.0
mvc-7260,BaYCuBiO5,0.0
mp-1098521,RbMg30CO32,0.27470000000000017
mp-772617,Zn(NO3)2,3.406
mp-765118,LiVCrP2(O4F)2,0.9590999999999998
mp-631269,LiIrRh,0.0
mp-704362,CoSiC4Cl3O4,3.9118
mp-37521,Nd2USe4,0.0
mp-1095905,NbV2Fe,0.11739999999999995
mp-1018806,MoSeS,0.6430999999999998
mp-555620,BaNb7(P2O11)3,0.007600000000000051
mp-780906,Co3(O2F)2,0.0
mp-1030910,NaLiMg6O7,1.0723999999999996
mp-555716,Tm2Ru2O7,0.0
mp-743178,FeH8(ClO2)2,3.7971
mp-581285,LiGd6B3O14,2.9139999999999997
mp-7073,BaTiS3,0.0
mp-759849,Li2Ti6Zn3O16,2.8292
mp-763322,Li4CoO4,0.0
mp-641945,Tb2Sb5,0.0
mp-643841,KV2P2H4O13,0.12529999999999994
mp-18327,Ba2Tl2O5,0.8080000000000003
mp-777474,LiFeF4,3.2260000000000004
mp-1079696,USnRh,0.0
mp-863423,SrGa12O19,1.8584
mp-645302,Al14Co5Si2,0.0
mp-1068577,ZrPbO3,2.2792000000000003
mp-764666,Mn3(O2F)2,0.0
mp-22335,GdB2Ru3,0.03310000000000013
mp-14306,Lu2FeS4,0.0
mp-10036,Ce3AlC,0.0
mp-707376,NaNb14O36,0.0
mp-30591,Li2CuSn,0.0
mp-705338,FeCoPO4F,0.0838000000000001
mp-24727,TmH2,0.0
mp-1020599,Na5B(SO4)4,5.3015
mp-566493,NiP2H24(C2O7)2,4.8972
mp-16164,Dy3Si3O10F,5.1089
mp-867283,Ho2CuRu,0.0
mp-1039958,CeMg30BO32,0.3940999999999999
mp-756811,Li4TiS4,2.1619
mp-12535,K2ZnTe2,2.0535
mp-13801,Tl2Pt2O7,0.6955
mp-773978,Li4Co3TeO8,0.7389999999999999
mp-861956,LiPm2Ir,0.0
mvc-785,YTi(WO4)2,1.7108000000000003
mp-2563,CeSe,0.012800000000000368
mp-1076796,Sr5Ca3Mn4(FeO6)4,0.0
mp-14680,Sr2Ga2S5,2.5153
mp-24037,CoH9(CN2)3,2.8895
mp-6457,La2MgTiO6,3.1450000000000005
mp-561290,K2BiF5,4.7686
mp-16587,Dy4Si2S3O7,2.6106
mp-10061,ErBPd3,0.0
mp-615489,Mn3Nb6O11,0.23380000000000045
mp-30765,LiPt7,0.0
mp-1099280,SrMg6Fe,0.0
mvc-9297,PrMg(SnO3)2,0.0
mp-3706,Ho2Co12P7,0.0
mvc-13666,MgSnO2,0.6333000000000002
mp-1096176,ZrHgAu2,0.5307
mp-3941,LiYF4,7.3177
mp-12594,TiIr,0.0
mp-1057086,GaN,1.5635
mp-772346,Tm2(WO4)3,3.9047000000000014
mp-641754,Ca3SiO5,3.9851
mp-1016651,Mg6CrMo,0.0
mp-767030,LiVSiO4,1.9342
mp-758731,Li3Bi(PO4)2,3.7454
mp-32076,LiMoP4O13,1.5217999999999998
mp-565267,Na2SrV3O9,2.2136
mp-1096384,NbCr2Tc,0.0
mp-974420,Re3Mo,0.0
mp-973149,Mn3Al,0.0
mp-755431,PrNdO2,0.0
mp-769658,Li2TiFeO4,0.8561000000000001
mp-1098465,HfMg30SiO32,0.0
mp-30325,In2(Se2O5)3,3.4984
mp-542988,Gd(CoGe)2,0.006800000000000139
mp-18203,KGe2(PO4)3,3.707
mp-556320,Cs2NaFeF6,4.0522
mp-600250,CoH6(CO3)2,2.9202
mp-1008689,Ti2Si,0.0
mp-570953,HoGa3,0.0
mp-19047,MgMoO4,3.7827
mp-27929,LaCl,0.0
mp-557375,NaLiCO3,4.4576
mp-707772,TeP2H16N2O13,3.7525
mp-694044,Na3Ca7Ta3Ti7O30,2.3925
mp-1074106,Mg4Si7,0.0
mp-764213,Mn12O7F17,0.0
mvc-7429,MgBi2O5,0.4382999999999999
mp-1070601,La2BiO2,0.0
mp-781130,Li12MnV7(PO4)12,0.1814
mp-565334,VH10N2(OF2)2,3.0429
mp-1019537,BaAlSi4N5O3,3.2181
mp-771864,LiFePHO5,2.4248
mp-1079799,BaMnBi2,0.0
mp-13381,CeZnPd,0.0016999999999995907
mp-1094420,YMg,0.0
mp-672680,Zr6Co16Si7,0.0
mp-10776,K2Sn(AsS3)2,1.0089
mp-4472,BMo2C,0.0
mp-865000,HfScIr2,0.0
mp-1098692,RbMg30MnO32,1.4396000000000004
mp-558011,Cd2H2SO6,2.7608
mp-709098,H2CS3,2.0181
mp-567994,Er5(NiTe)2,0.0
mp-27147,Rb3BiBr6,3.3
mp-862794,K2Pu2O5,0.0
mp-849393,Li8Fe7(PO4)8,0.010800000000000145
mp-12459,Ag3PS4,0.9914
mp-1027145,Mo3W(Se3S)2,0.7651000000000003
mp-1022931,Mg6MnSb,0.0
mp-685544,Ga2CuO4,0.0
mp-772151,Li2Ti4O9,2.8924
mp-696871,LaAlO3,3.5818999999999988
mp-982448,Pm3Y,0.0
mp-768638,Dy3Sb5O12,3.1578
mp-1066783,ZrBr,0.0
mp-30101,Ba4Si3Br2,0.3695000000000004
mp-1022978,Mg6MnSn,0.0
mp-977423,Yb2ZnRh,0.0
mp-2260,FePt,0.01580000000000048
mp-977402,NpInRh2,0.0
mp-767285,Li6MnFeP2(CO7)2,3.6201
mp-27589,Cu5(PO5)2,0.1120000000000001
mp-9364,RbSmS2,2.2721
mp-1072320,HgSBr,0.0
mp-1037798,CaMg30BiO32,0.08929999999999971
mp-693503,Zn2GaP3H8(NO6)2,2.3536
mp-6160,Rb2PO3F,4.313
mp-1096266,La2CdPb,0.0
mp-853260,V3O5F,0.5218000000000003
mp-861499,Pr2CuIr,0.0
mp-989580,Cs2KNF6,2.9976000000000003
mp-1038831,Mg3Bi,0.11319999999999995
mp-761730,LiCo3CuO8,0.0
mp-9750,SbPO5,2.5466000000000006
mp-677551,Na6MgAl4Si13O36,5.029300000000001
mp-1022112,LaMg6Cu,0.0
mvc-4404,Zn3Si4(BiO7)2,2.4361
mvc-3669,Zn3Mo2O7,1.6529000000000005
mp-979267,Ta2FeMo,0.0
mp-1032202,Mg6VCuO8,0.0
mp-756290,TbGaO3,3.6356
mvc-424,Nb2Zn2CrO8,1.0086999999999997
mp-609356,CrWO4,1.2248
mp-694888,Ba8Mn8O21,0.2885999999999997
mvc-16173,Y3CuSiSe7,1.5118
mp-1773,ReB2,0.0
mp-777924,Li2Fe3F8,2.9391000000000003
mp-775386,Li4Mn3Fe2Co3O16,0.0
mp-510721,CaCoAsHO5,2.359
mp-1079694,CsI,3.1258
mp-565829,Cr2HgO7,2.0069
mp-17997,BaTi2(P2O7)2,0.003300000000000303
mp-6015,LiSiNO,5.5571
mp-770484,LiMn2(SO4)3,0.281
mp-15709,LuCo3B2,0.0
mp-615820,Pu2Pt,0.0
mp-777294,Bi2(SO4)3,3.7173
mp-771759,Li2Ti3CrO8,0.0
mp-580357,Cu3Pd,0.0
mp-24103,CuH12Br4(NO)2,0.611
mp-766906,LiVF4,2.1007
mp-991047,ZrCo,0.0
mp-976343,HoErPd2,0.0
mp-640075,FeSiGe,0.4379999999999997
mvc-1120,BaTi4AlO7,0.2755000000000001
mp-623024,TiCdF6,4.3747
mp-767719,Li4Ti2Mn3Ni3O16,0.014699999999999937
mp-865737,Li2InSn,0.0
mp-552056,PbCClO2,2.9096
mp-754892,Rb3ClO,0.4777
mp-27336,CsCuBr3,0.3732
mp-699482,Na2H20CO13,4.2389
mp-9339,NbP,0.0
mp-568873,GaSi2As(H3C)8,3.7194
mp-768947,Li10Zn3(GeO4)4,3.1107
mp-773449,Fe4OF7,0.7885999999999997
mp-862924,PmInPd2,0.0
mp-631489,Be2CdP,0.0
mp-10286,KMnTe2,0.0
mp-1057818,O2,0.0
mp-20199,PPbS3,2.2992
mp-1028765,Te2MoW3(Se2S)2,0.0
mp-558257,DySeClO3,4.3668999999999984
mp-25378,CuO2,0.0
mp-675977,AgBiS2,0.3349000000000002
mp-773600,LiVSnO4,0.0
mp-30242,Mg4H2O5,4.006500000000001
mvc-6345,Zn(BiO2)2,1.1669
mp-680286,Os5(CO)19,2.0255
mp-1097910,NaMn8O16,0.0
mvc-11660,Ca(CoO2)4,0.0
mp-764989,Li4V3P8O29,0.8959999999999999
mp-1039582,CeMg,0.02689999999999948
mp-615937,MnB2F8,6.615500000000001
mp-541000,K3As11,1.4670999999999998
mp-13089,Cu2SnTe3,0.0
mp-1016622,Mg6NbMo,0.0
mp-1001612,LuSi,0.0
mvc-7381,ZnW2O7,4.209
mp-21178,U2Co3Si5,0.0
mp-1096142,La2HgIr,0.05259999999999998
mp-556201,AgSbC2N2(ClF3)2,3.637
mp-744123,BaLa4TiCr4O15,1.8816
mp-696123,Li10Sn(PS6)2,2.0004
mp-997536,Li3V2(PO4)3,1.8251
mp-555645,CuHgSBr,0.8626
mp-600027,SiO2,5.5226000000000015
mp-762858,Li4CrP6(H4O11)2,3.1935
mp-1098706,CeSe2,0.12040000000000005
mp-22536,U3S5,0.004800000000001248
mp-779871,Na4Co2O5,0.8426
mp-1096435,SnHgPb2,0.20520000000000005
mp-763017,Fe2O3F,0.0
mp-1079053,B2Mo3,0.0
mp-1094863,MgGa,0.0
mp-866180,Li2YbPb,0.0
mp-684800,Rh9Se20,0.0
mp-770537,LiMn2O3,0.0
mp-777322,Li6Fe(O2F)2,1.0125
mp-1079976,TmNiGe2,0.0
mp-777596,Li5V6O5F19,0.8029999999999999
mvc-15870,MgBiF5,4.2701
mvc-5514,ZnSbAsO5,2.4172
mp-555048,NaAlCdF6,4.6080000000000005
mp-762967,Li4V3P8O29,1.1209
mp-645504,Yb23Mg4Cu7,0.0
mp-773524,Na3Li3Fe2P2(CO7)2,3.981100000000001
mp-676611,Bi7(S3Cl)3,0.9489
mp-560428,CoCu2GeS4,0.0
mp-554206,Cs2Al2As2O7,3.6603
mp-1035981,YMg14VO16,0.040000000000000924
mp-1023276,Mg6AlC,0.0
mp-1094203,La2Mg,0.0
mp-1094628,MgGa2,0.0
mvc-16615,YTi2O4,0.0
mp-705911,MoH17C5(NO)4,0.6504000000000001
mp-1029528,NaCoN,0.0
mp-8752,Na4CdP2,0.8354999999999999
mp-1069160,U2RuC2,0.0
mp-610972,MnGePd,0.0
mp-765766,Na11Mn13O32,0.0
mp-703684,MnH12N2(Cl2O)2,3.4053
mp-769769,Li2AlCoO4,1.6394
mp-28419,K2TeSe3,1.7896
mp-757089,LiIO4,2.1838
mp-780927,Li2VP2HO8,2.3775
mp-559520,In2Ag3(PO4)3,0.9885000000000006
mp-570668,LaSe2,0.2386999999999997
mvc-14606,Mg2NiSbO6,0.2073999999999998
mp-570000,K3Mo2Br9,0.9673
mp-1092291,Sm(GePt)2,0.0
mp-1080633,CeSe2,0.9826
mp-505362,Ca(LuS2)2,1.5810999999999995
mp-567807,TmZrSb,0.0
mp-983604,Er3As,0.0
mp-622086,La2GeS5,1.9676
mp-20075,TbMn2,0.002100000000000436
mp-568562,Ni21(SnP3)2,0.0
mp-569580,NaLa4I7N2,2.8338
mp-557908,AsH5COF6,5.0325000000000015
mp-764386,Li6Mn(FeO3)2,2.629900000000001
mp-695157,KBaIn2(PO4)3,3.4535
mp-25943,Li2CuP2O7,0.0
mp-2442,ErAu,0.0
mp-1078335,Pr2BiN,0.0
mp-541755,NiPH16NO10,4.6384
mp-19138,BaNiO3,1.4764
mvc-4129,Ca2TaTiO6,0.0
mp-644295,CaZrGeO5,3.8972
mp-769411,Li6B3SbO9,3.5961
mp-1079833,SmCoSb2,0.0
mp-558392,Bi2Ir2O7,0.0
mp-776886,Li2FeF5,2.7262000000000004
mvc-7559,BiAs2O7,0.02679999999999999
mp-624417,CdI2,2.3365
mp-640562,KYb3F10,0.0
mp-28858,Na2HgS2,2.1799
mp-866066,B2S3,1.5239999999999998
mp-704112,SmCoSe2ClO6,2.6024000000000003
mp-1095705,LiMg30TiO32,0.4220999999999995
mp-770575,LiCrPO4F,2.6156
mp-22672,CeC,0.0
mp-561468,Cu2SiS3,0.002799999999999692
mp-574239,Tm3AlC,0.0
mp-22003,NaN3,4.0245
mp-1027911,Te4Mo3WS4,0.0
mp-782643,Li5Mn6(BO3)6,0.4418
mp-744413,Mo6H20Cl14O9,0.4679
mp-1072802,CaZnSn,0.0
mp-769265,Na6Bi2As(CO4)4,0.0
mp-23904,BaH4O3,4.2591
mp-770189,Gd2TiO5,2.8642
mp-778699,V3OF11,1.6069999999999998
mp-776185,LiFeF3,0.01089999999999991
mp-5795,CaMg2N2,1.9969
mp-9391,TaNi2Te3,0.0
mp-976726,LiDyO2,4.5644
mp-623044,Ce3Si2Rh3,0.0
mp-31294,Sr2In3Rh2,0.0
mp-13775,Gd2Si2O7,3.2372
mp-866505,CaSnS3,0.2946
mp-765547,Li3V(OF)2,0.4606999999999997
mp-761342,Li4Co2Cu3Sb3O16,0.0
mp-5335,U2PdS4,0.0
mp-568560,TlBr,2.2965
mp-585378,Li2Co3(P2O7)2,2.8176
mp-698060,PHOF2,7.0025
mp-2393,YTl3,0.03950000000000031
mp-757404,Li2Cu2Si5O13,0.4739
mp-546152,SmBi2ClO4,1.6805999999999996
mp-707881,GeH12(NF2)4,2.4704
mp-686587,Yb9(Fe3S10)2,0.0
mp-541940,Cr6Si7Ni16,0.0
mp-777858,VO2,0.2394999999999996
mp-769463,Li11Ti8Fe5O32,0.15249999999999986
mp-768071,Li5Mn17(SiO16)2,0.3482000000000003
mp-778103,Cd(BO2)2,3.3861
mp-766463,Na3GaB4O9,4.3701
mp-210,BaLi4,0.026500000000000086
mp-766613,LiVP2O7,2.0382
mp-1095309,LaAsO4,3.7797
mp-568729,Nd2Fe14C,0.0
mvc-5003,Zn2SbWO6,1.5862999999999996
mvc-8493,TiNiP2O9,0.0
mp-9468,KCa9Mg(PO4)7,5.2794
mp-1029044,Te2MoW3(SeS2)2,0.0
mp-556622,Tl2OsCBr2OF3,0.7049
mp-696216,HS3N,2.7266
mp-1009008,LaTe,0.0
mp-999086,TcN,0.0
mp-1079661,BC7,0.0
mp-1038517,Mg30BWO32,2.0537
mp-29206,BaMnSb2,0.010800000000000587
mp-973964,Lu2GaAg,0.0
mp-9953,HfP,0.0
mp-754822,Li4Ti3Sn5O16,0.5792999999999999
mp-1009224,MnSb,0.0
mp-27417,Li3InO3,2.8902
mp-559023,Na24In5O15,0.0
mp-34293,CsTaN2,2.1495
mp-1097422,ZnInRh2,0.0810000000000004
mp-12778,VOs,0.05739999999999945
mp-983444,LiPmZn2,0.0
mp-25680,Rb2CoH8(CO5)2,3.0052
mvc-1626,W3Se2ClO8,0.7252
mp-768094,Na2FePCO7,2.4388
mp-22875,TlBr,1.9877
mp-542807,Cu2Te2Br2O5,0.0
mp-553948,Tl4Hg3Sb2(As2S5)4,1.6628000000000005
mvc-8344,MgMn2O5,0.0
mp-540204,Co2P3O10,0.4852
mp-865994,YbScRh2,0.0
mp-560226,NaNd(Si3O7)2,4.7954
mp-707457,KMg2B12H19O30,5.2772
mp-1329,LaTe2,0.0
mp-680664,U4Ga20Ni11,0.0
mp-763561,Li2P2WO8,3.0496
mp-982373,Pm3Zn,0.0
mp-32325,NiPO4,0.000399999999999956
mp-558427,Na6Mg(SO4)4,5.2539
mvc-2085,V2ZnO6,1.6669000000000005
mvc-3769,YMoO3,0.6668000000000003
mp-1019721,CsMgBO3,3.1495999999999995
mvc-2103,Mg(MoO3)2,0.8715999999999999
mvc-2664,Mg2Ta2FeO8,3.0914999999999995
mp-1039821,Mg30NbSiO32,0.9278000000000004
mp-601848,Fe11Co5,0.0
mp-976596,LiLu2Ga,0.0
mp-1091369,UCoAs2,0.0
mp-1079921,HoNiGe3,0.0
mp-1070456,Be3N2,2.7645
mp-1037344,Mg30FeCO32,2.9508
mp-706616,ZnH8(O2F)2,4.8552
mp-782720,LiTiV3O8,0.8689999999999998
mp-850468,LiTiV2O6,1.3928000000000005
mp-554710,AgAsC4S8(N2F3)2,2.6151
mp-19584,K3NdV2O8,3.6332
mp-1079464,Fe(NF2)3,0.0
mp-28996,Ag4Bi2O5,1.6389000000000005
mp-11752,Lu7(NiTe)2,0.0
mp-755177,EuSeO3,0.010200000000000207
mp-1097832,C,0.0
mp-1032374,NaMg6FeO8,1.4968999999999997
mvc-15153,Mg(NiO2)4,0.0
mp-560785,K2Y4Sn2S11,1.5806
mp-763164,FeOF,0.0
mp-780597,V2(OF)3,0.9809
mp-540152,MnP2O7,0.9644
mp-863696,Pm2MgSi,0.0
mp-698690,NaCaGaSi2O7,3.1211
mp-29676,Dy3AlC,0.0
mp-547522,BaPbO3,0.3054000000000001
mp-568625,La3(SiPd)4,0.0
mp-755546,Na6BeO4,1.9845
mp-565368,Na2CrCoF7,2.7271
mp-982064,Tl3Br,0.0
mp-752435,DyTmO3,4.5265
mp-669578,Rb2Gd4Cu4S9,0.9045999999999998
mp-767908,LiCo2CuO6,0.1994999999999998
mp-628817,P2W9O31,0.0
mp-27181,KAuCl4,1.4392
mp-1072023,CrPb2,0.0
mp-15109,Sm(ZnP)3,0.13140000000000066
mp-565688,Sr3Fe2(SeO3)6,2.408
mp-1035835,YHfMg14O16,0.004899999999999238
mp-29821,Gd4B3C4,0.0
mp-27352,Sr(Ag3O2)2,0.8503000000000003
mp-865321,Lu2IrRu,0.0
mp-9157,K3AlO3,2.8977
mp-31476,CsHC2,4.5867
mp-764390,NaNi4H9(CO5)3,3.7179
mvc-7961,As2WO7,3.0543
mp-18316,Mg2Pd,0.0
mp-22300,FeCo2Ge,0.003300000000000303
mp-558807,ZnAgPS4,2.1934
mp-35205,LiErSe2,1.7895999999999996
mp-267,Te2Ru,0.2829999999999995
mp-850487,Li7VGeO8,2.7391
mp-16964,SiO2,5.6779
mp-1097716,Ca(CuSi)2,0.0
mp-34425,Zn(FeO2)2,1.6224999999999996
mp-1093871,ZrZnAu2,0.5345
mp-571580,Er14(InPd)3,0.0
mp-769148,Sc(ClO4)3,3.1683
mp-1039509,CeMg,0.0
mp-10641,Sc,0.0
mp-1065250,S,0.009700000000000042
mp-1079012,Cu2SnHgTe4,0.0
mp-1078543,YbAlCu,0.0
mp-990911,PuAs,0.0
mp-1096074,TiBe2Pt,0.0
mp-560572,Al(HO)3,4.9898
mp-18833,Sr3Cr2O8,0.0
mp-707039,ZnH20S2(NO7)2,0.37449999999999983
mp-28740,SrTi11O20,0.012199999999999987
mp-20977,CuTeO3,0.0400999999999998
mp-8977,Ca2PN3,2.6026000000000007
mp-973992,Ho3Pb,0.0
mp-628690,SbN6Cl,0.5765
mvc-3361,Sr2Y2Sn2O7,0.2587000000000001
mp-558625,SrZr(PO4)2,4.1079
mp-1097166,LiZnGa2,0.0
mp-695699,Te2AsS4N4(ClF2)3,0.7736999999999999
mp-1099875,Na2Mo2O5,0.5543999999999998
mp-761535,LiFePO4,3.6826
mvc-14856,Al2(CuO2)3,0.0
mp-865082,NaCaAu2,0.0
mp-25417,LiTiO2,0.0
mp-771929,Li4Fe5Cu3O16,0.0
mp-764816,Mn6OF11,0.37780000000000014
mp-651688,Si4Ag10O13,0.4972999999999996
mp-569708,TiPt3,0.0
mp-764066,Li3V3P8O29,1.2594
mvc-1234,MgNiP2O7,3.9661
mp-3346,HoZrSb,0.0
mp-42981,NaGdTiNbO6F,2.3813000000000004
mp-772517,Li7Fe4(PO4)6,1.1516000000000002
mp-778748,Li3FeBO4,3.0694000000000004
mp-22645,PrSnPd,0.0
mp-10654,Te,0.0
mp-558738,BaPr2CoS5,0.0
mp-775910,ZrO2,3.3166
mp-978545,Sm2AgHg,0.0
mp-761347,Li2CrSi7O16,1.8156
mp-770667,Li24MnCr11O36,0.9246
mp-29373,KAlSb4,0.2452000000000005
mp-626354,H6N4O9,1.1695
mvc-9352,PrZn(SbO3)2,0.0
mp-1001906,Dy(CrSi)2,0.0
mp-694,VSe2,0.0
mp-1028291,Mg14TiSn,0.0
mp-2360,CaGe,0.0
mp-631551,MnAlTc,0.0
mp-867352,TcRh3,0.0
mp-9318,KZrCuSe3,0.6053999999999999
mvc-1904,Mg2Ti9O13,0.0
mp-2501,BMo2,0.0
mp-689979,LiFeP2O7,1.2115
mp-690149,Li(CoO2)8,0.11389999999999988
mp-685339,Bi12Ir12O41,0.0
mp-578744,MnP3H12NO7,4.3019
mp-743614,MoH2Cl2O3,2.6258
mp-776678,FeO,0.4281999999999999
mp-754912,LiCuO2,0.0
mp-3155,Sc3FeC4,0.0014000000000002901
mp-771161,Ba3(BrO)2,2.3516
mp-28143,H8S5N2,2.1413
mp-30848,USnPt,0.0007000000000001452
mp-1096961,CrN2,0.0
mp-1038619,SrMg30CO32,2.6751
mp-1097675,BePRu2,0.3181000000000003
mp-1025664,Te4Mo2WSe2,0.3518999999999997
mp-774043,MnV(P2O7)2,1.0275
mp-17918,Ba2SnS3F2,2.3078000000000003
mp-1039846,RbNaMg30O31,3.2859
mp-761940,Li2MnCo3O8,0.0
mp-865187,MgFeRh2,0.0
mp-1079050,LaAsO3,2.8816999999999995
mp-764585,Li6MnV3(PO4)6,0.05920000000000013
mp-1029102,Te2MoWSe2,0.11109999999999998
mp-557741,Ba17Tm16Zn8Pt4O57,2.3147
mp-23017,CsCu2Br3,1.6383
mp-1040009,LiMg30BiO32,3.5105000000000004
mp-697047,Li3H4Rh,0.3917999999999999
mp-20548,U(Al5Fe)2,0.040699999999999285
mp-769944,Li3FePCO7,4.0809
mp-627206,Si2H2O3,1.5458000000000005
mp-19068,TmVO4,2.9583
mp-779951,Na2Ni2O3,1.2372
mp-434,SrAu2,0.0
mp-973533,FeAg3,0.0
mp-8724,K2TeO3,3.5774
mp-675626,Cu3AsSe4,0.0
mp-1026394,HfMg14Ti,0.0
mp-1097587,ZrNbRu2,0.0
mp-771028,Li3SiBiBO7,0.0
mp-19940,VAs,0.0
mp-980945,Ti3Nb,0.0
mp-778274,Dy5Ti5O17,0.0
mp-1072087,LaAu2,0.0
mp-645513,HfTl8(MoO4)6,3.4417000000000004
mp-864741,Yb2TlPb,0.0
mp-825,RuO2,0.0
mp-571526,Rb2PtC4(BrN2)2,2.0048
mp-757327,Li7Ti2P7O24,0.21480000000000032
mp-558665,Ba2Co(BO2)6,2.1832
mp-978920,Tb2Be2O5,2.1983999999999995
mp-6499,BaLiBO3,4.5285
mp-772039,Na4Sn4H10O11,2.6825
mp-1100609,Li9Mn2Co5O16,0.0
mp-1097888,La2Fe2O5,0.8209999999999997
mp-2571,Rb2O3,0.0
mp-780353,Na6B4Sb2SO16,0.0
mp-1027436,Te4Mo3WS4,0.0
mvc-3070,Zn4Co5(TeO6)3,0.8693
mp-978016,LaSn2Pd,0.0
mvc-296,Sr2AlCu2AgO7,0.0
mp-989555,Tl2InGaF6,2.3621
mp-999069,Ti2AlFe,0.0
mp-557472,K2Be2(SiO3)3,4.809900000000002
mp-866166,Y2PdRu,0.0
mp-1097418,YScAl2,0.0
mp-8677,ZrTiTe4,0.0
mp-1026428,HfMg14Cd,0.0
mvc-1329,BaAlW4O7,0.0
mp-1014246,ZrB,0.0
mp-853138,Li4CoNi3(PO4)4,2.6704000000000003
mp-13146,Ca3N2,1.4171999999999998
mp-850252,Li5Fe8(BO3)8,1.5365000000000002
mp-1008511,BaGaCu2,0.0
mp-1016274,LiMg7,0.0
mp-680463,Rb4Pb9,0.31099999999999994
mp-1035831,Mg14ZnFeO16,2.7795
mvc-5145,Si2WO6,3.1616
mp-780547,Fe3O5F,0.0
mp-850401,Li2FeOF3,2.3404
mp-861968,ErCl2,0.0
mp-676752,Li2FeCl4,0.01089999999999991
mp-12315,DyBO3,5.3594
mp-31102,Tb3ReO7,0.0
mp-565357,Sr3Fe2Cu2Se2O5,0.5070000000000006
mp-775128,Fe3Sb(PO4)6,0.0
mp-560773,K2NaS2ClO6,5.092
mp-912903,Ba2CoMoO6,0.0
mp-555443,PNF2,5.4842999999999975
mp-556928,CsLiBeF4,6.8736
mp-570613,CdI2,2.355
mp-28075,K2Ti2O5,3.2268
mp-4662,ScOF,4.5928
mp-23294,RuBr3,0.0
mp-18195,Lu2SiO5,4.567500000000001
mp-773690,Na2LiFePCO7,3.9214
mp-764075,Li3V3P8O29,1.1659000000000002
mp-672286,Eu3Ga2,0.0
mp-766807,Li4Mn3O6F,0.0
mp-866650,La2Si4CN6,2.3360000000000003
mp-864952,Mg3Ag,0.0
mp-773742,CoOF,0.0
mp-685353,Bi15PO25,2.3087
mp-865473,VBr3,0.0
mp-569149,K2TeCl6,2.5562
mp-641573,Cr21(MoC3)2,0.0