mpid,formula,gap pbe
mp-760205,Ba16S16O59,4.9752
mp-779200,Li4Nb2Cr3Ni3O16,0.0
mp-672337,VGe3,0.0
mp-540808,S4N4O3,1.5693
mp-863912,Li3Mn2(PO4)3,0.0
mp-977194,Na3Be,0.0
mp-781689,Co2OF3,0.6197
mp-1013710,Ba3BiN,0.0
mp-1032822,Mg6MnZnO8,0.6013999999999999
mp-862822,PaSnPd2,0.0
mvc-9598,Ca(SbO2)2,0.6950000000000003
mp-686487,Th2(Mo3S4)5,0.0
mp-1039570,CaMg2,0.0
mp-862884,CaPmPd2,0.0
mp-776386,ZrO2,3.723500000000002
mp-762040,Na(WO3)10,0.0
mp-1073587,MgSi2,0.0
mp-645405,Rb6LiPr11Se12(Cl4O9)4,3.0737999999999994
mp-569358,Bi,0.0
mp-1025140,USiSe,0.0
mp-557340,Ge3Pb5O11,2.5011
mp-778059,Li2FeF5,3.5821
mp-21363,TbFeSi,0.0
mp-765035,Fe(Bi5O8)5,0.7234999999999996
mp-554174,Ca2P2H8O11,4.854299999999999
mp-1036519,BaMg14AlO16,0.0475999999999992
mp-531376,Li4Mn3Cl10,1.8259999999999998
mvc-3236,MgCoSiO5,0.0
mp-19104,LiYb(WO4)2,0.8648000000000001
mp-1094224,ZrSn3,0.0
mp-780909,Li2Fe3F8,2.9172
mp-639727,Cs,0.0
mp-11852,NdCu2,0.0
mp-763458,V2GaO5,0.4402000000000004
mp-767670,Li4Mn3(FeO5)2,0.4116
mp-1069658,EuGe3Rh,0.0
mp-1026736,SrCeMg14,0.0
mvc-15449,YV2O4,0.0
mp-764079,Mn6O5F7,0.2046000000000001
mp-567409,Sb,0.0
mp-14333,TaAlO4,4.0663
mp-864665,Nd2Si3Rh,0.0
mp-5725,CuAg3S2,0.2464000000000004
mp-695436,H24C8S(NO2)2,3.8119
mp-698638,Ga2NiO4,1.8044999999999995
mp-566375,NaFe4(MoO4)5,1.3009000000000002
mp-571188,Pr3Sn,0.0
mp-753593,Ti10O13,0.0
mp-1071163,TiO,0.0
mp-620652,NaSr2AlP3,0.31220000000000026
mp-695367,La13Al12Si18(N13O5)3,0.9276
mp-1096628,La2CdIn,0.0
mp-1094692,Mg16Al13,0.0
mp-1097584,YGaAg2,0.0
mp-12481,LaPPt,0.0
mp-1079908,Ti2SiC,0.0
mp-762631,LiFeSiO4,2.6321
mp-865594,Y2CuIr,0.0
mp-998,Al2Cu,0.0
mp-1093780,Nb2CrRu,0.06699999999999973
mp-5493,PrSi2Ni,0.0
mp-1025441,Ta2AlC,0.0
mp-862883,CaPmHg2,0.0
mp-1096682,VZnFe2,0.0
mp-865356,Tm2MgAl,0.0
mp-2254,Al2O3,4.8274
mp-15387,Ba6Cu11F34,0.2944999999999999
mp-7756,SrLiSb,0.6857999999999995
mp-1084813,NdCuGe2,0.0
mp-32379,Li3Ni3(PO4)4,0.008000000000000007
mp-776410,Mg(NO3)2,3.543
mp-8281,Ba(CdAs)2,0.1591999999999998
mp-11180,NaC,0.0
mp-25500,CrH17N4Cl2O3,3.6345
mp-769601,LiVSO4F3,1.3764
mvc-13332,Mn2Nb4Zn3O16,0.9178000000000002
mp-1028039,Mg14ZnCo,0.0
mp-780012,LiMnPO4,3.4347
mp-1073387,MgSi2,0.0
mp-631530,Hg2BCl,0.0
mp-1076505,Sr3CaTiMn3O10,0.010499999999999956
mp-981551,PrGe5,0.0
mvc-1659,Zn(SbO3)2,1.0979999999999994
mp-698654,NaMgFe(SO4)3,1.8083
mp-8794,K4UO5,2.1712
mp-6875,BaNa2Al4(SiO4)4,4.7346
mp-779273,Li3Fe(Si2O5)3,3.4543
mp-1030924,NaLiMg6O7,0.00199999999999978
mp-17792,K2Hg3(GeS4)2,1.5520999999999998
mp-863028,SmI3,2.0143
mp-21943,Ba(InS2)2,2.3251000000000004
mp-850869,Fe5O7F3,0.0
mp-1096689,Y2PtPb,0.13560000000000014
mp-1077768,CeAlAu,0.0
mp-561288,K3LiIrO4,0.3984999999999999
mp-764363,Na5(WO3)13,0.0
mp-1077372,Zr2Cu,0.0
mp-1096642,YMnAu2,0.0
mvc-10883,YMnO3,0.0
mvc-10621,BaCaMoF7,4.6469
mp-647350,Rb5HfFe(MoO4)6,3.2284
mp-997569,AlP,2.1634
mp-8446,K2CuP,1.1421
mp-996944,Cs2TlInBr6,1.8255
mp-1095859,Ba2AlTl,0.8937000000000002
mp-765532,LiV3O5F,1.2032000000000005
mp-861954,LiTaRu2,0.0
mp-9930,UPSe,0.0
mp-567106,KIn(WO4)2,4.315799999999999
mp-1095396,NaGe2Pd3,0.0
mp-1069706,K2PdSe2,0.8458000000000001
mp-570150,CaAlSi,0.0
mp-769761,Mn(Cu3O4)2,0.0
mp-13954,Rb2GeF6,5.8839
mp-5222,ReTeS,0.2140000000000004
mp-1037750,YMg30CoO32,1.2428000000000008
mp-752393,Be2P2O7,6.028600000000001
mp-714914,V3O5,1.3934000000000006
mvc-528,BaCa(CuO2)4,0.0
mp-9690,Ca(AlGa)2,0.0
mp-776619,Li2TiV3O8,0.6088
mp-571126,Ti2BRh6,0.0
mp-22449,InCu(PSe3)2,0.3111000000000001
mp-1028255,Mg14AlSn,0.0
mp-735553,V3P2H12C3N2O15,0.0
mp-540997,FeTeCl7,1.331
mp-1028267,CsMg14Sn,0.0
mp-1077914,EuB6,0.0
mp-781064,Fe5O7F3,0.0
mvc-5136,ZnCr(SiO3)2,1.8339000000000003
mp-571459,ZrMn2,0.0
mp-764696,Li4Ni2OF7,0.6706000000000001
mp-773544,LiCoSbO4,1.2510999999999997
mp-1079184,MnGeRh,0.0
mp-976075,Li3Ca,0.0
mp-567249,GdMg2Ni9,0.0
mvc-1818,Ba2ZnCuBi2F14,1.1815
mp-1097645,HfScTl2,0.0
mp-1036531,Mg14TiAlO16,0.025399999999999427
mp-862761,PrBiAu2,0.0
mp-545783,BaBiO3,0.0
mp-1095204,Tm2Ni2Sn,0.0
mp-763537,LiCo2(CO3)3,0.4303999999999999
mp-1030244,Te2MoW3(SeS2)2,0.0
mp-11987,SmMgTl,0.0
mp-765976,Li3V3P8O29,0.9948
mp-1095147,MnInO3,0.0
mp-30867,ScRu,0.0
mp-28507,La8Nb7S22,0.0
mp-758350,Nb8Tl8O25,0.0
mp-675920,Ti6AgS12,0.0
mp-22162,YbNiSn,0.0
mp-1071862,YAlZn,0.0
mp-7592,AgF,0.0
mp-1096980,FeAgO2,1.0774
mvc-10607,BaMgNiF7,1.6007
mp-756244,CaEu2O3,0.015199999999999212
mp-780334,LiMn2(BO3)2,0.3817999999999999
mp-1033835,BaMg14BiO16,0.0
mp-761517,Li4MnSi2O7,3.2934000000000005
mp-11270,MnBe2,0.0036999999999993705
mp-1017400,NaMg6Nb,0.0
mp-1075137,Mg3Si4,0.0
mp-25590,PrNiO3,0.03629999999999978
mp-2048,TlTe,0.12450000000000028
mp-763318,LiCo2(BO3)2,0.8924000000000001
mp-27144,TlPO3,3.4606
mp-684015,Bi9AuBr9,1.0151999999999997
mp-1002223,DyP,0.0
mvc-5466,CoO2,0.0
mp-979912,Yb5Sn3,0.0
mp-32616,Ga2S3,1.8097000000000003
mp-978917,Sn3B,0.0
mp-850146,Li4Mn3Fe(PO4)4,3.5660000000000003
mp-1056627,Cr,0.0
mp-4413,Th(SiRh)2,0.0
mp-752648,Ba3(BrO)2,2.2886
mp-1075577,Mg5Si6,0.0
mp-1093654,Y2CuHg,0.08899999999999998
mp-1068977,K2PdC2,1.4423
mp-777196,LiV4OF11,0.9826
mp-554763,NpAgSeO5,0.3155000000000001
mp-31803,Fe4As2O11,1.6461000000000006
mp-683918,RbC2N3,3.6271
mp-31657,LiCrP2O7,2.9141000000000004
mp-560019,K2Ge3(BO5)2,3.8545
mp-1080678,LaFeAsO,0.0
mp-971922,DyYAl2,0.0
mp-761415,CuNi3O4,0.0
mp-1034331,HfMg14VO16,0.0
mp-867346,ThCdHg2,0.0
mvc-1144,Ba2YW3O8,0.0
mp-772155,Li2BiAsCO7,3.367
mp-973267,KTcO3,0.0
mp-542122,Ba3LiRu2O9,0.07799999999999985
mp-541762,CaNiAsHO5,2.9551
mp-696776,BaAl3P2(HO7)2,0.0
mp-14015,HoMn12,0.021099999999999675
mp-8956,Ho2S3,0.8826
mp-961674,VGePt,0.0
mp-1022657,YMg6W,0.0
mp-752463,NbNO,0.9874
mp-542159,FeCuPO5,0.004400000000000404
mp-767272,LiVFe(P2O7)2,1.6041
mp-981262,YbF,0.0
mp-1016877,HgRhO3,0.0
mp-779420,Dy2P4O13,5.5009
mp-1093570,LiFePt2,0.75
mp-866071,MgTaOs2,0.0
mp-570607,Dy5C2I9,0.6639999999999997
mp-762063,Na4Cu6O5,0.8289999999999997
mvc-1823,Ti4Al(CuO4)3,0.0
mp-765138,Li2Co(CO3)2,2.1374
mp-15336,Sc2Cu2O5,0.0
mp-16786,Sr2EuNb(CuO4)2,0.0
mp-774868,ZnP4O11,4.627
mp-866295,DyLuMg2,0.0
mp-10897,PrAl2Ni3,0.0
mp-1025326,Tb2Mo2C3,0.0
mp-760501,TiGa2O5,2.7831
mp-675832,SrCeN2,0.9146
mp-571084,MnBr2,1.5334
mp-989403,LaVN3,0.5716999999999999
mp-1097316,Zr2MnTc,0.0
mp-1009650,RbSb,0.0
mp-32056,Mo(PO4)2,1.4574
mp-607715,PrZnRh,0.0
mp-561622,Cs2AgAsS4,1.5478
mp-21861,Cu3TeO6,0.0
mp-1029403,RbGe2N3,1.0678
mp-850021,NaFe11O17,0.3294000000000001
mp-1016304,CsMg6B,0.0
mp-866646,KGeBiS4,1.8562
mp-16726,LiB,0.0
mp-568031,GaHg2SbCl4,0.8072
mp-755225,Li8ZrO6,4.7583
mp-9579,AlTlSe2,0.5872999999999999
mp-680259,TaTe4,0.15850000000000009
mvc-5627,NiO2,0.0
mp-699658,Na4VS3O13,2.6285
mp-989590,Ca6Sn2NF,0.1352000000000002
mp-1098851,Mg30CrCuO32,1.0079000000000002
mp-961682,TiSnPd,0.4691000000000001
mp-14782,Na6MnTe4,1.3399
mp-1025246,Er2B4C,0.0
mp-2964,NaNO2,2.4238
mp-565597,Cu3P4S4I3,1.6302
mp-753979,Sn2P2O7,2.9406
mvc-16446,Ca3CuRhO6,0.0
mp-24546,MgH2(SeO4)2,3.4416
mp-1028729,TeW2Se2S,0.0
mp-684904,K2O,0.5071
mp-699660,KHo2Cu(MoO4)4,1.1534999999999995
mp-20224,GdInPd,0.007099999999999441
mp-680172,CdI2,2.341
mp-1003316,KMn4O8,0.0
mp-644828,AuXe2F17,1.3692000000000002
mp-758727,CuCO3,0.0
mp-755595,Er2TiO5,3.0380000000000003
mp-1079597,ScGeRh,0.0
mp-510453,Ag3RuO4,0.0
mp-630403,Ca2MnGaO5,0.0
mp-1063133,CaPd2,0.0
mp-761862,LiB2SbO6,3.1674999999999995
mp-631589,VN2(Cl3O)2,1.3230000000000002
mp-1016300,SrMg6Cr,0.0
mp-1007666,HoAu,0.0
mp-22256,NdMnSi,0.0
mp-865413,Lu2TcPd,0.0
mp-773245,TiMn3O8,1.3715000000000002
mp-1073570,MgSi2,0.0
mp-721583,CdH2SeO5,2.5048
mp-777039,NaNiPO4,3.6817
mp-641775,Sr19In8N7,0.0
mp-715498,VO2,1.2537
mp-22966,C(ClF)2,5.706799999999999
mp-9994,Ho11Ge10,0.0
mp-1025426,CeI3,0.02329999999999988
mp-762234,Li4Ti3Mn3(TeO8)2,0.2450999999999999
mp-30608,Er2Ni17,0.006399999999999295
mp-978520,SmDyRu2,0.0
mp-542218,NaVBP2H3O10,2.1958
mp-20453,TiCoSn,0.020000000000000462
mp-7927,Nb4N5,0.0
mp-28145,Rb2PdCl6,1.2868
mp-542930,Eu2(Ga3Ir)3,0.030999999999999694
mvc-13792,Ca2WN2,0.0
mp-778814,Tm2WO6,3.6258
mvc-10366,Sb4O9,0.0
mp-1072752,ThGeS,0.0
mp-1033867,BaMg14CdO16,0.6707999999999998
mp-1077534,PaPt5,0.0
mp-861554,Li5Mn(SiO4)2,0.5468000000000001
mp-540900,B2PdO4,0.7786
mp-21707,Er2CrS4,0.15800000000000036
mp-1025819,Mo3(Se2S)2,0.7406999999999999
mp-23227,CuBr,0.4299
mp-20330,Mn3SiIr,0.0
mp-850536,BaGa12O19,1.9291
mp-17332,Sc5Ga3,0.015400000000000082
mp-560966,K2RuNCl5O,1.7987999999999995
mp-5466,YbNbO4,0.0
mp-762522,LiFe(PO3)4,2.1852
mp-1096997,H6PbCBr3N,2.1736
mp-979014,SrAc3,0.0
mp-704097,Sr6Co4Bi2O15,0.0
mp-1074057,Mg9Si5,0.0
mp-1030605,Te2Mo3WSe6,0.0
mp-651333,Gd2WO6,3.1225
mp-560944,Cs4Ba(PO3)6,5.106400000000002
mp-1076595,La7SmTi2V6O20,0.0
mp-625850,H7NO6,3.1283000000000003
mp-859110,Ta7BiO19,3.0205
mp-9107,NaZrCuS3,0.5438000000000001
mp-547125,TbBi2ClO4,1.3439000000000003
mp-758357,Li3Ti3(PO4)4,0.0
mp-1079806,TiMnAs,0.0
mp-19243,VSb2O5,2.5772
mp-16296,Sc2C3,0.014199999999999768
mp-30970,Er12Co7,0.002300000000000413
mp-28208,ZrFeCl6,0.741
mp-985572,LiAg(CO2)2,2.5039
mp-850366,Li3MnFe2(BO3)3,2.7882
mp-771298,Li4V3Cr2Co(PO4)6,0.5625
mp-22051,LuGeRu,0.0
mp-984723,DyAlO3,2.9473999999999987
mp-13975,Er2SeO2,2.1741000000000006
mp-760353,LiCu2F7,0.16639999999999988
mp-5626,K3SbTe3,1.711
mp-978264,MgW3,0.0
mp-772487,LiCrO2,3.0591000000000004
mp-17639,Y2Zn17,0.0
mp-20260,U(SiIr)2,0.0
mp-556587,AuSCl7,1.8191
mp-1016264,CsMg7,0.0
mp-19030,La4V5(Si2O11)2,0.8078000000000003
mp-560046,Ta2Pt3S8,0.6797000000000004
mp-39542,KRb2ZrOF5,4.5984
mp-1146,ThS2,1.2842000000000002
mp-8528,Tm(SiRh)2,0.0
mp-406,CdTe,0.5846000000000002
mp-734042,MgH12(NO6)2,3.5098000000000003
mp-866185,CeCdAu2,0.0
mp-566222,Mo2P2PbO12,2.7123
mp-574060,KB(CN)4,6.2294
mvc-3014,SrCo(PO4)2,0.017299999999999982
mp-849357,Co6OF11,0.5509
mp-27656,Zn2(PS3)3,1.7947000000000002
mp-766769,LiFePO4,3.569
mp-686617,Nd10Si10N17ClO9,2.9399
mp-12630,MgSeO4,2.8689999999999998
mp-32383,Li2NiP2O7,4.1160000000000005
mp-1096522,Y2CdRu,0.1623000000000001
mp-983584,Al3Tl,0.0
mp-1988,Y5Mg24,0.0
mp-773699,LiMg(Fe5O8)2,1.6804
mp-1986,ZnO,0.6310999999999999
mp-770356,Na6Fe2B4SO16,0.0
mp-763924,Li4Fe3CuO8,0.05169999999999986
mvc-7701,Zn2Sn3O8,1.2476000000000005
mp-849796,NaZn4H18SClO16,3.2778
mp-553121,Sm2IO2,0.0
mp-571331,Tb4Ga12Pd,0.0
mp-16044,Ca(As2Rh3)2,0.0
mp-555860,EuTiClO3,0.0
mp-853211,Fe2O3F,0.0
mp-763558,LiV2(CO3)4,0.7772000000000001
mp-557753,K3PO4,4.0019
mp-8439,Ca5(AlSb3)2,0.15559999999999974
mp-1029569,Na3IrN2,0.23729999999999984
mp-763424,Li3VP3O11,1.4117
mp-541843,FeMoO4,2.3680000000000003
mp-655099,NiH12C4(N2O3)2,2.1998
mp-772232,Tm2P4O13,5.6294
mp-2884,Cs2Mn3S4,0.4763999999999999
mvc-2378,Ba2CaCuNi2F14,0.0
mp-853175,Li4V2Si4O13,2.1985
mp-644101,H8C2IN,4.3361
mp-578773,VPPbO6,2.3217000000000003
mp-997099,PdAuO2,0.0
mp-28588,Na2BeO2,2.7941000000000003
mp-765857,LiCr(SiO3)2,2.9517
mp-782698,Li2TiMnO4,0.0
mp-756088,SrTaNO2,1.4941000000000004
mp-1026855,KBaMg14,0.0
mp-21131,CaMnSb2,0.02810000000000024
mp-863420,Rb4H4C3O10,4.0445
mp-1067129,VC3,0.0
mp-1020141,Na2Al2Si3O10,4.4468
mp-685942,Ti2(Mo3Se4)5,0.0
mp-17256,Rb2Hf3OF12,6.2789
mp-851014,Li5Mn6(BO3)6,0.0
mp-850007,Li7V16(PO4)24,0.8331999999999999
mp-631491,BaNbTc2,0.0
mp-1034421,Mg14NbVO16,0.01670000000000016
mp-773588,Sc6N2O5,0.0
mp-765463,ErH3(SO4)3,5.8801
mp-1079500,CaNiBN,0.2513999999999994
mp-557618,Rb4CuSi2O7,0.7275
mp-974370,PtRh3,0.0
mp-721328,CaAsH3O5,3.9496
mp-680158,K2Ti(GeO3)3,2.8471
mp-853152,Na3NiO2,0.19600000000000006
mp-1022131,Mg6VCu,0.0
mp-975253,RbPr3,0.0
mp-758551,K3EuSi3(HO5)2,0.0
mp-1023490,Mg15Cr,0.0
mp-779874,Li2MnF4,3.3902
mp-1094355,Sr2Mg,0.0
mp-768357,Ba2Ti11O24,2.5740000000000003
mp-769454,Li9(NiO2)10,0.3567999999999998
mp-10960,Tb2Ti2S2O5,0.7039
mp-863720,HgPd3,0.0
mp-684989,W9C4,0.0
mp-485,ZrNi3,0.00620000000000065
mp-991139,Ba2PrRuO6,0.16700000000000026
mp-556120,RbTl(SO4)2,1.9822
mp-1019259,SrSnHg,0.0
mp-1094341,MgTi,0.0
mp-9983,Ta2Se3,0.0
mp-761417,Li2Mn2Si4O11,3.3347
mp-1028043,YMg14Mo,0.0
mp-862762,Pr3Co,0.0
mp-22771,Pu(MnSi)2,0.0
mp-974545,ReSn3,0.0
mp-21071,Eu2SO2,0.009299999999999642
mp-636476,SrCu3(RuO3)4,0.0
mp-1096418,Hf2CuNi,0.0
mp-1074960,Mg3Si4,0.0
mp-771206,Li4FeCo5O12,0.2810000000000001
mp-707231,As2PHO6,4.2371
mp-603679,Na2NiH12(SO7)2,4.767799999999999
mp-767412,Li3(CoS2)4,0.0
mp-1093,ThGe,0.0
mp-3882,Sm(SiRh)2,0.0
mp-1017506,SrMnO3,0.0
mp-4651,SrTiO3,1.8488
mp-1018177,EuC2,0.0
mp-1078694,ThGaRh,0.0
mp-1097235,MgFePt2,0.0
mp-861947,LiPm2Ga,0.0
mp-766790,VF4,0.7376999999999999
mp-1017564,Eu2O3,0.0
mp-573588,CdI2,2.3783
mp-758863,Sn2N2O,0.0
mp-525,NbSe3,0.0
mp-1068869,ThSi3Ir,0.0
mp-779341,Li3Mn4(BO3)4,0.35540000000000016
mp-39412,SrLaMn2O6,0.05039999999999978
mp-8452,NaLiS,2.2642
mp-722912,Hf3Zn3C,0.0
mp-1080022,ZrCu,0.0
mp-773679,Li2V3(PO4)3,0.4490000000000003
mp-20273,Ca3PbO,0.0
mp-1098857,YMg30CO32,0.0
mp-763671,Li2Ti2V3O10,0.5897000000000001
mp-866824,Ca2SnS4,1.2939000000000005
mp-20234,Li2BPt3,0.0
mp-29299,TeSeO4,3.0675000000000003
mp-6453,K3Nd(Si2O5)3,4.1357
mp-1075731,Mg5Si9,0.0
mp-9815,TaTl(CuS2)2,1.9468
mp-18466,Nd2SiSeO4,2.6009
mp-1021271,CeMg6Cd,0.0
mp-505207,Sm2Co7B3,0.0
mp-780145,Li11Mn6O16,0.4358
mp-567900,Lu2Fe14C,0.0
mvc-9244,PrMg(BiO3)2,0.0
mp-866147,Lu2AgOs,0.0
mp-20466,Sn7Ir5,0.015100000000000337
mp-3033,RbTaO3,3.5412
mp-766293,Al11AgO17,3.0191000000000003
mp-773941,Na5LiMn2P2(CO7)2,3.3174
mvc-11254,Ca(FeS2)2,0.0
mp-777077,LiV4OF11,1.0343
mp-1037086,LiMg30CoO32,1.2153
mp-1093887,La2AlZn,0.0
mp-1012865,LiTi3P3O13,0.0
mp-977100,NiMoO3,0.0
mp-849402,LiCo2OF3,2.3021000000000003
mp-4359,Sr2PdO3,0.2271000000000001
mp-1033923,Mg6AlNiO8,0.3451999999999993
mp-557711,K3Nb3(BO6)2,2.3808
mp-758196,Mg3(AsO4)2,3.0323
mp-766416,K2UH6C2SO13,1.7241
mp-752863,K4N2O5,0.08139999999999993
mp-11660,Hf3N4,1.0251
mp-1078605,Pt(NCl)2,0.0
mp-738646,Ag4Te(ClO3)2,0.0
mp-545603,Ba2BiSbO6,1.6438999999999997
mp-27169,KTa5O13,3.1482
mp-974326,OsRu3,0.0
mp-11433,ErGaCo,0.0
mp-17830,Rb3Ge4Au,0.9193
mp-13551,ScTeO3F,3.3208
mp-1027286,TeMoWSeS2,0.0
mp-546787,KNO2,2.4085
mp-1018685,ErCuSn,0.0
mp-1023152,CaMg6Bi,0.0
mp-15845,SrLi4N2,0.8873999999999999
mp-554532,K2TeClF5,4.4512
mp-571185,HfCoSb,0.0
mp-554645,K3Sb2N2O6F7,2.9622
mvc-9739,Mg(CuO2)2,0.0
mvc-9858,LaMgCr2O6,0.5433000000000003
mvc-5055,Ca2VWO6,1.2640000000000002
mp-559771,Pr6O11,0.0007000000000001452
mp-7050,ZrTlCuSe3,0.2367999999999997
mp-9564,Ca(MgAs)2,1.2608
mvc-8417,CaNi2O5,0.0
mp-865985,CdPd3,0.0
mp-1096251,ZrZn2Pd,0.0
mp-707441,SnH12Pt(N2Cl3)2,1.834
mp-767417,K2AlPCO7,4.9518
mp-649683,Fe(PO3)2,3.9803
mp-780202,Li2FeO2F,1.6584
mp-1037670,YMg30SiO32,0.0
mp-616019,BaCo2(PO4)2,2.0681000000000003
mp-1096122,BeCrOs2,0.0
mp-631482,BiMoRh,0.0
mp-649667,BaDy2MnO5,1.9903000000000004
mp-32736,Er2Se3,1.8283000000000005
mp-1070238,ThSi3Rh,0.0
mp-1001079,Li(CN)2,1.8775
mp-997094,SrAuO2,1.4237000000000002
mp-864651,Ta2NbRu,0.0
mp-996963,CdAgO2,0.0
mp-540945,Na2Li3GaO4,3.2395
mp-862874,PmAgHg2,0.0
mp-561257,LiPr2C2N4F3,3.7058
mp-558129,KNaSi2O5,4.4523
mp-761328,LiVPO4,2.5249
mp-676449,Na4Al3Si3NO13,0.8347000000000002
mp-559329,KCrF4,2.9232
mp-1018165,PtC,0.0
mp-1029947,Te2MoWSeS,0.03780000000000028
mvc-14243,CaCoO3,0.0
mp-861182,Li4TiS4,2.4707
mp-22610,Mn2SnW,0.0
mp-767035,Zr7VO16,1.9250000000000005
mp-1094346,MgTi,0.0
mvc-15420,La2ZnWO6,0.0
mp-1039381,CeMg2,0.008399999999999963
mp-1095622,Zr(MoO4)2,3.1898
mp-849949,LiMn2PO6,0.6399000000000001
mp-555874,LiAsS2,1.0664000000000002
mp-974948,Rb3In,0.0
mp-601574,VH4(CO3)2,2.9939999999999998
mp-694869,Ca2YFe3(SnO6)2,0.0
mp-755231,LiTeO3,2.1415
mp-1099231,CsRbMg14O15,1.9909999999999999
mp-1097387,Li2RhAu,0.7717999999999994
mp-579665,CeTl5Fe2(NO2)12,0.0
mp-1034739,Mg14CrNiO16,0.0
mp-11490,Li2ZnSn,0.0
mp-1027140,MoW3(SeS)4,0.6412999999999998
mvc-4383,TaZn2NiO6,0.0
mvc-4057,SiSbO4,0.0
mp-1032412,RbMg6FeO8,0.0
mp-867820,LiAlPd2,0.0
mp-610469,CeBiS2O,0.0
mp-774088,Li2NbCr3O8,1.8766000000000005
mp-641564,U4Ga12Pd,0.0
mp-690962,Nb24(CuS8)5,0.0
mp-20639,BaMnGe,0.024599999999999955
mp-1097473,LiMnIr2,0.5857999999999999
mp-774416,Ti3Cr(PO4)6,0.4171
mp-619171,Rb2LiFeF6,3.6976
mp-20511,In(Mo3Se4)2,0.005399999999999849
mp-20327,TiP2,0.0
mp-28853,LaAuO3,1.7977
mp-581813,Na3Fe2P2O8F3,2.3434
mp-6638,Nd2Fe2Si2C,0.0
mp-6537,CaCu(GeO3)2,0.5058999999999996
mp-766367,Dy5(ReO6)2,0.0
mp-774389,Li4MnV3(P2O7)4,0.31710000000000016
mp-961703,NaLiPt,0.5526
mp-770495,Li4Ti2Mn3Fe3O16,0.6628000000000003
mp-540440,FeP2O7,0.3061
mp-1078441,Ba2UCu2Se5,0.0
mp-23020,BiSeI,1.5745000000000005
mp-30866,Rh3W,0.0
mp-30183,ZrAl5Ni2,0.0
mp-20821,NpGa3,0.0
mp-1007823,GaBN2,3.140900000000001
mp-755206,Ca2Ti6N2O11,1.9883
mp-779072,Li4MnFe3(BO3)4,3.1541
mp-1078845,C,3.6931
mp-974672,Rb3Er,0.0
mp-540940,Ti(TlSe)4,2.1544
mp-989641,LaOsN3,0.0
mp-556165,LiB(CO2)4,3.3042
mp-990532,TiCo,0.0
mp-1093709,ScCu2Ag,0.0
mp-622018,BAs5(Pb3O10)2,2.9516
mp-1073493,MgSi2,0.0
mp-754998,Ce2SeO2,0.0
mp-850166,Li5Mn6(BO3)6,0.1818
mp-12226,NaNd(PO3)4,5.603
mp-1017340,NaMg6C,0.0
mp-31082,Li4ZrGe2,0.0
mp-1098844,Mg30VCuO32,0.0
mp-754599,BaTm2O4,3.2297
mp-3861,Al(MoS2)4,0.005300000000000082
mp-762822,Li2FeNi3O8,0.0
mp-28771,Sr2FeN2,0.0
mp-17827,Nd3SiAgSe7,1.4489999999999998
mp-32342,Ba3NiO4,2.29
mp-39626,SrLaMnWO6,2.0836999999999994
mp-19245,BaLaMn2O6,0.2882999999999996
mp-2592,Si2Mo,0.0
mp-636952,LiCS(OF)3,6.5704
mp-578817,V2Cd4(TeO5)3,1.7825999999999995
mp-999544,YAg2,0.0
mp-568663,FeAg3(CN)6,0.0
mp-1080531,Tb(GeIr)2,0.0
mp-734123,RbSrP3(HO2)6,5.3296
mp-569179,Ni3Mo3C,0.0
mp-769649,GdTa3O9,2.3374
mvc-12572,Ca(CoO2)2,1.0876999999999994
mp-11217,SrAgSb,0.0
mp-1080023,MoOs(PbO3)2,0.4904000000000002
mp-24152,HoH2,0.0
mp-567532,Sr8(MnN3)3,0.0
mp-27452,Al2PdCl8,1.5737
mp-770561,Mn2P4O13,1.1808
mp-865563,LuZnPd2,0.0
mp-775601,Li5Mn3Bi2(PO4)6,0.0
mp-706585,CaP2(HO2)4,5.0703
mp-1005666,Sc3Al3C2O5,0.4127000000000001
mp-769453,Li4Ti4V(Fe2O9)2,1.6191999999999998
mp-680232,K2AgC3(SN)3,3.2060000000000004
mp-29114,Re3Te4Cl5,1.2409
mp-757982,In(HO)3,2.3237
mp-19682,LiFe(WO4)2,2.4828
mp-28486,Cs2Ni3S4,0.8488000000000002
mp-861639,Ti2CoIr,0.0
mp-560093,Sr10Sm6Al6Si30N54O7,3.2561
mp-1036211,BaMg14MnO16,0.9603000000000002
mp-704636,Li3V3(PO4)4,1.8287
mp-1027914,Mg14ZrV,0.0
mp-771810,Li2MnNi3O8,0.0
mp-975882,Li3Cu,0.0
mp-763862,Li2VFe(P2O7)2,1.7203999999999997
mp-706238,Na3Zr3Fe(PO4)6,2.417
mp-628821,Cs2KMnF6,1.5998
mp-29972,Nd2P3Au,0.0
mp-126,Pt,0.0
mvc-16056,V4ZnO10,1.0625999999999998
mp-573548,La3(GaNi2)2,0.0
mp-782642,LiMn2(BO3)2,0.4797
mp-568633,RbNaMo3O10,2.9355
mp-776853,Li4Cu3Ni2Sb3O16,0.0
mp-556576,ZnS,2.0639000000000003
mp-775774,AgBiO3,0.0
mp-770023,Ag2Hg3,0.0
mp-553303,CsCu3O2,1.4572
mp-11393,Nb3Ga2,0.05600000000000005
mp-862750,SrNiSn2,0.0
mp-780463,Ti11BeO20,0.0
mvc-10624,BaZnNiF7,1.3279
mp-566045,Rb2Mo2H4C4O15,2.7138
mp-1021357,BaLiMg6,0.0
mp-1021395,SrMg6Sn,0.0
mp-769429,Li4TiMn4(Fe2O9)2,0.4329000000000001
mp-997040,AuBrO2,0.0
mp-779300,LiFe2OF5,2.2825
mp-859137,Li2Mn2Si2O7,2.8691000000000004
mp-753677,Li3BiS3,2.5580000000000003
mp-761961,Rb5(WO3)18,0.0
mp-8531,Lu5Ni19B6,0.0
mp-3747,Ti3AlC2,0.0
mvc-8644,ZnSn2(PO5)2,1.8705
mp-674944,SrUS2,0.0
mp-743731,K2MnH2OF5,1.3384999999999998
mp-764715,V2OF5,1.5907
mp-768307,BaSO3,4.447
mp-765887,Li4NiOF4,1.8989000000000005
mp-1026978,Te4MoW3S4,0.0
mp-780687,Co3(OF2)2,0.04300000000000015
mp-1079979,UFeSe3,0.0
mp-1093616,SrMgHg2,0.4076000000000002
mp-22146,In3Pd5,0.0
mp-764976,Li2Cr(PO4)2,0.0
mp-1073438,Mg2Si3,0.0
mp-676591,Li11Nb12O36,0.0
mp-1030108,Te8MoW3,0.5941999999999998
mp-1039435,Ce5Mg,0.0
mp-772451,Li2Mn3(PO4)3,0.4490999999999996
mp-867751,Ca2AgSn,0.0
mp-33816,Rb6Fe2O5,1.2331
mp-762181,Li4CoSn3(PO4)4,1.8892999999999995
mp-1033873,BaMg14CO16,0.0
mvc-11285,Zn(CoS2)4,0.0
mp-636565,YbIn5Ir,0.0
mp-1033032,Mg6NbAlO8,0.0
mp-1008279,Co3Mo,0.0
mp-761828,LiCoPO4,2.7612
mp-25462,Li3TiPCO7,0.12729999999999994
mp-29853,HgCN2,2.4557
mp-761720,Li4Cr3Ni3(WO8)2,0.2578999999999998
mp-29587,Pr3(BN2)2,0.0
mp-675766,K4CO6,0.1183
mp-649595,CaMgSiO4,4.6952
mp-20733,ErSiIr,0.0
mvc-10813,BaTi2TlO6,0.0
mp-643460,SnHg2(SBr)2,1.9584
mp-777718,Li2MnF4,3.871
mp-1075901,Sr6Ca2Co5(CuO8)3,0.0
mp-622190,Er2Mn3Si5,0.0
mp-864888,Dy2Mg,0.0
mp-554824,La3RuO7,0.5690999999999997
mp-961723,LiCaRh,0.2530999999999999
mp-14237,YbBO3,0.02069999999999994
mp-765919,VF4,2.15