mpid,formula,gap pbe
mp-31580,Li2CoP2O7,3.0154000000000005
mp-578752,Sr11InSb9,0.8611
mp-16523,Al3Pd5,0.0
mp-6175,BaLi2P2O7,5.3618000000000015
mp-25084,KMoPO6,2.5431
mp-1030335,Te4MoW,0.5418000000000003
mp-867226,Li3In,0.0
mp-767638,Li3Mn3(BO3)4,0.7257
mp-744811,NiH24C2S2(N3O7)2,4.9625
mp-973325,Li2MgGe,0.0
mp-633496,VCuHPbO5,0.08630000000000004
mp-18933,Li2WO4,4.3259
mp-777240,Li2FeO2F,2.3225
mp-669414,HfPbO3,2.7902000000000005
mp-1079853,SrMg2Pd,0.0
mp-28702,Gd2B3C2,0.019199999999999662
mvc-8070,MgTi(GeO3)2,1.5801999999999996
mp-1028401,CeMg14V,0.0
mp-762290,Li4Fe3Co(PO4)4,1.5837
mvc-9694,CaBi2P2O9,2.7132
mp-764812,VOF2,1.3564
mp-504752,Fe3BO5,0.9327
mp-27670,Rb4In2S5,2.2169
mp-937761,Li7ZrO6,0.0
mp-652683,Ba2Fe6O11,1.6653
mp-13076,IrN2,0.0
mp-1023284,HfMg6Al,0.0
mp-777601,Li10Mn3Cr3(FeO8)2,1.0297
mp-669402,Lu2Si5Ru3,0.0
mp-776785,Li2Fe(BO3)2,0.11149999999999992
mp-1031469,HfMg6SnO8,0.0
mp-21119,CeNiSn,0.002200000000000202
mp-541187,Al8C3N4,0.1880999999999995
mp-863847,FeO3,0.5706999999999999
mvc-12011,CaCr2O4,2.7875000000000005
mp-867795,ScNbTc2,0.0
mp-1099805,Mg2Mn2O5,0.0
mp-684670,PtCl2,0.07159999999999989
mp-770318,Li5Mn2P2(CO7)2,0.0
mp-676250,Bi2Te4Pb,0.4903000000000004
mp-977012,H6PbCBr3N,2.0713000000000004
mp-19522,P2W2O11,3.0442
mp-982,TmPd3,0.0
mp-569770,Si(H3C)2,3.5723000000000003
mp-1078811,Nb2GeC,0.0
mp-973466,In3As,0.0
mp-705024,VP2O7,1.3524
mvc-8750,Zn(SnO2)4,0.4380999999999995
mp-1101,TmAs,0.0
mp-27426,B4PF9,5.7120000000000015
mp-759029,LiBiP2O7,3.3655
mp-626778,NaHO,3.3035
mp-770254,Li3Mn2P2(CO7)2,0.0
mp-756306,Li5Zn4(BO3)4,0.0
mp-541754,TiCu2Te3,0.0
mp-1034419,NaMg14CO16,0.0
mvc-1214,Ba2Ti3O7,0.0
mp-1093544,TaMnOs2,0.0
mp-25752,Cs2FeH12(SO7)2,4.2649
mvc-11436,AlV2O4,0.0
mp-1094294,Sr2Mg,0.0
mp-9732,BaNaP,0.8555000000000001
mvc-1216,MgCoP2O7,2.9851999999999994
mp-765043,Li4V3P8O29,0.3365000000000001
mp-782062,YNb2NO5,2.5478
mp-36536,NaCeS2,0.0
mp-1079792,CeTlTe2,0.0
mp-605676,AgH8C7S2O2F7,3.1657
mp-1021347,Mg6TiCd,0.0
mp-695215,Y2Al9Si27(N15O)3,2.4673
mp-763955,Li4MnV3O8,0.6019000000000001
mp-1024960,PrScSi,0.0
mp-991652,VCu3Te4,0.5731999999999999
mp-554946,SiO2,5.7187
mvc-12627,MgV2O4,1.4286999999999996
mp-1093943,InAg2Au,0.7863000000000002
mp-555344,Hf2P2O9,4.9036
mp-29337,Tl3BS3,1.4222
mp-542606,Pu,0.001200000000000756
mp-613402,SrZrO3,0.0
mp-1093998,Zn2Ga2S5,0.7439
mp-1094714,Mg5Bi,0.0
mp-24052,CaMgNiH4,1.8730000000000002
mp-13095,YAlNi,0.0
mp-1096695,Tl2HgSb,0.0
mp-541848,B,0.0
mp-28786,Zn(BIr)2,0.04079999999999995
mp-27653,LiAlH4,4.729
mp-765446,LiCoPO4,2.9922
mp-775513,Na2NiPCO7,0.0
mp-780132,NaCr6O11,0.0
mp-696762,TlP2H5O8,5.105600000000001
mp-757131,Sn(PO3)4,3.3535
mp-570744,Si3As4,0.4043000000000001
mp-1075482,Mg3Si4,0.0
mp-1093963,Na2HgSb,0.005300000000000082
mp-765254,W(OF)2,1.6949
mp-561022,SrMgF4,6.6872
mp-530545,In4GeSe4,0.6203000000000003
mp-8479,Tl4SiS4,1.9549000000000003
mp-28583,Si2NCl5,5.0863
mp-24798,Rb3B12H12Cl,4.9513
mp-551741,Zn2P2O7,3.6447
mp-761704,Bi4O5F2,2.5409999999999995
mp-774275,Li3Co3(Ge3O8)2,0.0
mp-7590,GeP,0.0
mp-15957,Sc15C19,0.0
mp-773932,Li6V3P8O29,1.1532
mp-626094,Al(HO)3,4.3399
mp-645246,Dy3BWO9,3.7847
mp-570039,La12Fe2I17,0.0
mp-653455,FeSO3,3.7523
mp-554143,Ba7Ru4Cl2O15,0.0
mp-1002228,PtC,0.0
mp-1056418,Sr,0.3767
mp-558096,Zn2SiO4,2.3636
mp-1095507,SbIrSe,1.2113000000000005
mp-1707,BaN6,3.8159
mp-763998,Mn6O5F7,0.0
mp-9939,Hf2Ge,0.0
mp-675432,Na3InCl6,3.7823
mp-768330,Sn2P2O7,2.4065000000000003
mp-762749,Li6MnNi7O16,0.2864
mp-753663,BaYBr5,3.6748
mp-540966,Ni(ClO4)2,3.8223
mp-566355,NiP3H12NO7,4.6113
mp-7018,LaGaS2O,1.9282000000000004
mp-1032771,YMg6CuO8,0.0
mvc-9783,MgMn(GeO3)2,1.3963
mp-865926,Cd2PdRh,0.0
mp-867787,RbTl2Bi,0.0
mp-776487,Li2V5CuO12,0.5398999999999998
mp-756229,Na(SnO2)2,0.0
mp-676411,Sr9U9O34,0.004599999999999938
mp-1023505,Mg6AlFe,0.0
mp-34284,NaNdF4,7.2060999999999975
mp-1028241,Mg14AlMo,0.0
mp-771951,Ba3La2Br12,3.2308000000000003
mp-1080824,FeNiAs,0.0
mp-777277,Li2Cr3CuO8,0.5247999999999999
mp-734944,CoH2(SN)4,0.3951
mp-770096,Mn2FeO4,0.6438999999999999
mp-22809,KCeSiS4,0.13089999999999954
mp-1071766,ZrTa2N3,0.0
mp-554191,Na2UO4,1.8660000000000003
mp-15238,Ho4C5,0.0
mp-675278,Cu11S16,0.0
mvc-10526,Ti2Be3Zn(SiO4)3,0.0
mp-5568,Nd3Co11B4,0.0
mp-685415,Na3SmBr6,4.1353
mp-1039856,Mg30CdSiO32,1.5650000000000004
mp-770483,Rb3FeO3,1.7836
mp-1093883,Mn2GaMo,0.0
mp-777151,LiFe2F7,3.6311
mp-1095820,InNi2Au,0.01839999999999975
mp-28204,CsH7O4,4.5889999999999995
mp-764681,NaCr2O4,0.0
mvc-11476,Mg(VS2)4,0.0
mp-865168,Be3Ni,0.0
mp-583213,HgI2,1.4602000000000002
mp-555594,ZnS,2.0252
mp-25761,RbFeBP2HO9,2.7796
mp-1038136,CaMg30VO32,2.2638000000000007
mp-10992,DyCuAs2,0.0
mp-679947,Os(CO)4,2.645
mp-768002,LiTi2Mn3O10,1.4673000000000005
mp-625148,H3ClO5,5.1544
mp-567727,Pr2Co2I,0.0
mp-776005,Li4FeBi(TeO6)2,0.9091
mp-1026803,LiMg14Cd,0.0
mp-778387,Ba5Y3F19,6.4176
mp-983609,MgIn5,0.0
mp-555,Fe8N,0.00480000000000036
mp-1032645,Mg6ZnNiO8,2.4809
mp-1075267,Mg3Si4,0.0
mvc-16037,Ca(TiS2)4,0.0
mvc-12806,Mg3Bi2(PO6)2,0.0
mp-975958,KNaMo(OF2)2,2.2123
mp-643658,Na3MgP2HO8,4.863899999999999
mp-766936,LiVF6,3.2555
mp-753822,La2Se2O,2.1536
mp-762470,Li3Fe5(PO4)6,1.8148
mp-1062236,PrCd2,0.0
mvc-8747,Mg(BiO2)4,0.0
mvc-4103,Al(SnO2)2,0.0
mp-645044,MnHg2C6(SN)6,0.0908
mp-705630,V25O32,0.2331000000000003
mp-762865,Li2V(SO4)2,3.5672
mp-17412,BaPr2O4,3.2224000000000004
mp-1073455,MgSi2,0.0
mp-770240,Li4AlCr3O8,3.1083
mp-1023014,KMg6Mn,0.0
mp-1094617,MgGa,0.0
mp-32055,Mo2(PO4)3,0.8731
mp-12455,TmCuS2,1.6565999999999992
mp-985700,ErCrB4,0.2257999999999996
mp-769668,Li2TiFe2O5,1.2397
mp-585382,Li3Co2(PO4)3,1.8935
mp-504791,P(WO4)2,1.2735
mp-1026881,CsMg14Cu,0.0
mp-764268,Na7(WO3)8,0.0
mvc-12186,CoSiO4,0.0
mp-566895,VZnSe2O7,2.0903
mp-1095320,LuBPt2,0.14320000000000022
mp-975,SF6,5.9365
mp-972032,Tl(IO3)3,2.1722
mp-977579,MgSbPd2,0.0
mp-19294,LiFeP2O7,2.6067
mp-866917,CaSnS3,0.0
mp-1032411,Mg6MnSiO8,0.0
mp-761285,Sc2V2O7,0.6056999999999997
mp-568328,FeP4,0.8292999999999999
mp-1080157,Te2MoW3(SeS2)2,0.0016000000000002679
mp-998591,LiSnCl3,3.4139999999999997
mp-24851,NdCoO3,0.14219999999999988
mp-1024039,Mg3AlO4,0.0
mp-641534,Nd3CuSiSe7,1.3323
mp-1031242,KMg6SiO8,0.0
mp-1098791,RbMg30FeO32,2.2742
mp-31249,La2Te4O11,3.3342
mp-22939,BiClO,2.5584
mp-505772,Rb2NaH5(CO4)2,4.1978
mp-772132,Li2SiBSbO7,2.6665
mp-531712,YbPr11Se16,0.0
mp-12571,HfBeSi,0.0
mp-24170,CaPH3O4,6.0672000000000015
mp-542031,CrPbO4,1.8705
mp-770680,Li9Mn2AlO8,2.1143
mp-1297,Tl9Pd13,0.013999999999999345
mp-862361,Sc2NiOs,0.0
mp-776230,LiFeF4,3.1399
mp-1094773,CeMg,0.0
mp-1032034,SrMg6ZnO8,1.8376
mp-10162,La3Si2,0.0
mp-705511,Ce8Fe8As8O7F,0.0
mp-541291,Na3MoN3,1.5137999999999998
mp-543042,ScP(H2O3)2,4.8638
mp-1093911,YGePd2,0.0
mp-778770,Li2MnV(P2O7)2,0.2869000000000001
mp-649,FePt3,0.05320000000000037
mp-853195,Li2Mn3(BO3)3,0.24350000000000005
mp-20509,Ba2Y(CuO2)4,0.0
mp-541432,Mn(Bi3O5)4,1.1478000000000002
mp-675283,TlPF6,6.0343
mp-849500,LiMnBO3,3.0704
mp-1096808,BaFeS,0.0
mp-25606,LiNiO2,0.0
mp-555939,Li2Te2O5,3.1057999999999995
mp-768958,Ba2Y5Cl19,4.2872
mp-865677,ThSnPd2,0.0
mp-1770,Mg5Ga2,0.016799999999999926
mp-557376,S,2.14
mp-566366,Cs2V4O9,2.3216
mp-504802,MgH12S2O9,4.3727
mp-534850,NaCa9Ti9Nb(SiO5)10,2.8416
mp-17535,B3Ru7,0.0
mp-17230,Nb5GaSn2,0.0
mp-1093729,HfPtAu2,0.40700000000000003
mp-29007,P4(SO2)3,4.1226
mp-767156,LiMnOF2,0.6405
mp-1066718,Mn3Ge,0.0
mp-861884,AcGaTe2,0.4909999999999997
mp-762853,Mn2H8S3(NO6)2,4.3865
mp-684477,Li2Sb(PO3)5,3.9674
mp-1285,PtO2,0.5864000000000003
mp-672271,NbSe2,0.0
mp-550474,Li4CO4,3.9008
mvc-7707,MgTa2CoO7,2.8317
mp-862615,Er2NiRu,0.0
mp-651155,TeI4,1.7073
mp-571404,Hg3(SeI)2,1.1291000000000002
mvc-11096,MoO3,0.0
mp-1026417,HfMg14Ga,0.0
mp-542196,Cr2(Bi2O5)3,2.3562
mp-605665,H24RuC8(S2Cl)2,2.3671
mp-1065583,LaSe,0.0
mp-1025728,Te2Mo3Se4,0.0
mp-775202,CrSb3(PO4)6,1.2841000000000002
mp-22975,Rb2TeCl6,2.64
mp-1080296,CeSe2,0.8769999999999998
mp-695571,Na5Ca6Nd5Zr16O48,3.6137000000000006
mp-672209,RbCS(OF)3,5.4737
mp-861903,LiBiRh2,0.0
mp-1075302,Mg3Si4,0.0
mp-720118,Sr3Nd10Al12Si18(N2O)18,3.0068
mp-976128,Hf5Sc,0.0
mp-984100,PPb3,0.0
mp-704975,Cs5CeNi2(NO2)12,0.27370000000000005
mp-696,SiPt,0.0
mp-757102,Sr2RhO4,0.0
mp-7007,NbSe2,0.05799999999999994
mp-3278,Pr(SiPd)2,0.0
mp-867273,Be2CuIr,0.0
mp-1095890,CaMgIn2,0.0
mp-28556,Na3CuO3,0.7792000000000001
mp-31812,Li4Fe5(P3O11)2,3.681
mp-766765,LiFePO4,3.6723
mp-542011,Cs4Ti3S14,1.2939999999999996
mp-1098954,Mg30VSiO32,1.6742999999999997
mvc-3737,MgMnF5,1.7288
mp-1033608,RbMg6BiO8,0.10939999999999994
mp-25040,DyMn2O5,1.0799000000000003
mp-761672,Li4Ti3Cu3(WO8)2,0.0
mvc-15158,Ba2CaFe2CuF14,0.9577
mp-510544,SrSm2Nb2O9,2.4365
mp-1008224,CrCo2Si,0.0
mp-756495,Li3CuO2,2.5540000000000003
mp-5330,LaAlSi2,0.0
mp-680055,CdI2,2.3639
mp-558113,Ba6Nb2Ir(ClO6)2,0.0
mp-29839,Bi2SeO5,2.8422
mp-562137,KLiCO3,4.5408
mp-758313,BaZn2As3HO11,2.3039
mp-19992,La6UO12,1.9749
mp-1093538,MnV2Re,0.0
mp-1026646,NaMg14Cd,0.0
mp-1094790,SrMg,0.0
mp-568782,Dy(PPt4)2,0.0
mp-550070,NbBr2O,0.9038000000000002
mp-983430,HfZnPt2,0.0
mvc-6718,Mg(MoO2)2,1.3356000000000003
mp-22311,EuNi5,0.006399999999999295
mp-767897,ZnFe2As2(HO5)2,2.3831
mp-4864,CaMgSn,0.0
mp-1030456,Te2Mo3W(Se2S)2,0.0
mp-637182,Gd3Al7Ag2,0.0
mp-22468,Tb2Fe3Si5,0.012800000000000368
mp-862335,LiAsRh2,0.0
mp-9546,Yb2C3,0.0
mp-768536,Cs3LaO3,1.8359999999999999
mp-531459,MgAl2O4,3.3267000000000007
mp-32749,NdO3,0.12639999999999985
mp-720570,Na2PH11O8,5.2623
mp-570686,SnBi,0.0
mvc-1031,P4W3O14,1.6079
mp-8578,Sc3InC,0.0
mp-31416,Ho3TaO7,3.4507
mp-1040140,LiLaMg30O32,4.5186
mp-705646,Al2NiO4,2.9452000000000007
mp-867236,Tb2IrPd,0.0
mp-29333,Rb2PuCl5,0.08400000000000007
mp-772008,Li4Cr5WO12,1.4360999999999997
mp-762245,LiFe2(BO3)2,1.9749
mp-1017287,NaMg6Cd,0.0
mp-774016,Li2NbV3O8,1.1083000000000005
mp-625630,TeHO3,2.1456
mp-721128,Ga3P3H6C2NO13,0.5648999999999997
mp-774024,MnZn4O5,0.00099999999999989
mp-707516,Mg16Si8HO32,0.0
mp-34355,Li31Zr2As13,0.0012999999999996348
mp-541081,NaMg2H3(SO4)2,4.898
mp-604702,H10PtC(N4O)2,2.0724
mp-862918,PmHoMg2,0.0
mp-775468,Mn3V(PO4)6,0.0
mp-26741,LiCu4(PO4)3,0.4067000000000003
mp-653154,Ba2Ca2Tl2Cu3O10,0.0
mp-697179,ZrH,0.0
mvc-7668,BaYVCuO5,0.0
mp-557933,SiO2,5.5245
mp-8766,Rb2CoS2,0.000399999999999956
mp-1018060,GaCo2Ni,0.0
mp-1022534,LiMg6Zr,0.0
mp-1098347,Mg30SnBiO32,0.0
mp-10065,UFe3B2,0.0
mp-258,ZrV2,0.0
mp-763675,Li4Fe7O12,1.2685999999999995
mp-772231,RbCrO2,2.7996
mp-769210,Tb2Pb2O7,1.0930999999999995
mp-551900,PrBi2BrO4,1.2269000000000003
mp-568524,Cu5Sn4,0.0
mp-23519,Ga4Bi2O9,2.8782
mp-14730,NaSiSbO5,2.8726000000000003
mp-775093,Li5CoO4,1.5084
mp-1093886,Ta2MnRu,0.0
mp-752849,Y2Pb2O7,0.9987
mp-773468,LiFeSiO4,1.3112999999999997
mp-636297,HfNiSn,0.0
mp-685705,Mn17Nb31N48,0.0
mp-998553,KAgBr3,0.0
mp-720380,CuP2(HO3)2,0.0
mp-705595,Co7(SbO6)2,0.6821000000000002
mp-9988,Nb2CS,0.0
mp-567593,KBH4(CN4)2,4.7975
mp-29381,Na2Te2As,1.0608
mp-998433,CsSrBr3,4.4089
mp-765214,Li4V3P8O29,1.0122
mp-758002,Li3Sn(PO4)2,0.2486000000000001
mp-632573,FeO2,0.9697
mp-15787,KYbS2,0.0
mp-5966,Cd2SnO4,0.3997999999999999
mp-1096699,HfPdAu2,0.5308999999999999
mp-186,Na4Si23,0.0
mp-669649,Yb6Fe23,0.0
mvc-12644,Ca(NiO2)2,0.0
mp-989400,Rb2NaGaF6,5.9026
mp-1077697,Sr5Ca3Ti5Mn3O20,0.005399999999999849
mp-504691,LiMnP,0.0
mvc-941,ZnCuP2O7,0.2418
mp-697285,SrH10(SO4)2,4.1852
mp-7548,BaSe3,0.9260000000000002
mp-669465,Te2S4(NCl3)3,2.1287000000000003
mp-772435,Li3Al2FeO6,2.6608
mp-31885,Li3Fe2P5O16,4.1960000000000015
mp-676303,NaU2Cl6,0.0
mvc-8348,ZnNi(GeO3)2,2.2656
mp-1007656,HfPd3,0.0
mp-1069193,Pd(NCl)2,0.1869
mp-704109,SrFe3P3O13,2.0126
mp-14698,Ho2Fe14B,0.0
mp-1009838,ZrN,0.0
mp-1095751,LiSc2Al,0.0
mp-579331,K2FeF5,3.6845
mp-23391,Tl4CrI6,0.4763999999999999
mp-679669,NaZr2SN2Cl,1.889
mp-779643,Li2CuPO4,1.327
mp-14039,K2NaRhF6,1.8676
mp-30996,RbAuBr4,1.4507
mp-28765,CBr3F,3.3196000000000003
mp-704991,Mn3(PO4)4,0.11699999999999999
mp-28488,CuPtF6,0.067
mp-1033386,BaMg6NbO8,0.0
mp-675681,Ba4Er3F17,6.4909
mp-705801,Sm3MoO7,1.7632999999999996
mp-1095898,Sc2GePd,0.4264999999999999
mp-1037059,Mg30NbNiO32,0.5678000000000001
mp-865708,LiSm2Ru,0.0
mp-977176,NaTcO3,0.0
mp-607281,CaCr2O4,2.9317
mp-1072199,PuB2Ir3,0.0
mp-1098802,Mg30NbZnO32,0.2979000000000003
mp-19597,Ca3Mn2(SiO4)3,0.02519999999999989
mp-684697,Sc20O19,0.0
mvc-16105,Al2CuO4,0.0
mp-1096376,HfScPd2,0.0
mp-27265,AuClO,0.978
mp-5436,FeCo2Si,0.0
mp-1033019,Mg6AlBiO8,0.0
mp-567129,KLaSi(CN2)4,3.6776
mp-770419,Sr2Zr7O16,3.8849
mp-616668,Na2AlNiF7,5.2253
mp-1029498,Li6CrN4,1.4398
mp-765261,Li3Cr(BO3)2,3.1140000000000003
mp-1030736,Te4Mo3WSe4,0.05379999999999985
mp-578924,KMnVO4,2.5794
mp-5394,LaSF,1.4811999999999994
mp-546898,Sr2Cu(BrO)2,0.0
mp-720719,Ca2Y2Si4H2CO16,5.1278
mp-570153,Mg44Rh7,0.0
mp-779814,Cs2ZnH12(SO7)2,5.1596
mp-540461,LiV(PO3)4,2.1957000000000004
mp-1030929,KMg6BiO8,0.4105999999999996
mp-850915,LiFe2O2F3,1.641
mvc-4514,Si2WO7,0.6315
mp-650336,PCN2Cl3,3.4967
mp-767606,Na2NdPCO7,4.3794
mp-556845,CIF3,3.6942
mp-850942,Mn12O7F17,0.2821999999999998
mp-1024958,ZrHCl,0.0
mp-867833,LaMgHg2,0.0
mp-768570,Sr2CaI6,3.3417000000000003
mp-761294,V2Ge2O7,1.9188
mp-675756,Ba3P4O13,1.6969999999999998
mp-1016592,Mg6NbSb,0.0
mvc-8520,Si4BiO10,0.0771
mvc-11781,CaTi2F10,4.117
mp-1022327,CeMg6Co,0.0
mp-779907,LiMnPH2O5,3.4271
mp-1094321,SrMg5,0.0
mp-864927,Hf2ReOs,0.0
mp-743607,Li2Ti4Co(PO5)4,1.6172
mp-13570,Mg(ScGa)2,0.0
mp-33314,Li3Mn2O4,0.009699999999999598
mp-1009071,IrC2,0.0
mvc-1303,CaMnP2O7,4.161999999999999
mp-770868,VWO4,0.6270999999999995
mp-1020162,Na4Mg3P4O15,4.7301
mp-558432,Na3P(SO)2,3.2791999999999994
mp-20295,YbEuSi4N7,0.04859999999999953
mp-1038828,CaZn,0.0
mp-695373,Na4Al11Si13Ag7O48,1.5011
mp-4608,KPF6,7.0206
mp-680314,Rb14Si6Ge4O17,0.0
mp-554876,AsCS2N2OF5,2.8283
mp-27926,AsClF8,3.3572
mp-768315,Mg(IO3)2,3.3254
mp-757685,Li2Cu(SiO3)2,0.08719999999999972
mp-1029469,ZnSnN2,0.12070000000000025
mvc-11615,Mg3V2(SiO4)3,0.0
mp-1093736,Sr2MgCd,0.37470000000000026
mp-972116,VIrO3,0.0
mp-568519,Tm3(CuGe)4,0.0
mp-849508,Li5Mn6(BO3)6,0.0
mp-1096843,BaCuS2,0.0
mp-12062,AgB2,0.0
mp-778633,LiMnF3,3.5293
mp-24502,ZnH2(SO4)2,4.6505
mp-607291,Cu3BiS3,0.7058
mp-780328,Fe5(O4F)2,0.0
mp-777709,Li32Ti13Cr3O48,1.4038
mp-20388,Pr3PbC,0.0
mp-28320,Pt3I8,0.8003999999999998
mp-978270,MgZr3,0.0
mp-705011,LiFeP2O7,0.9665
mp-974035,Pb3I2(Cl2O3)2,3.2548
mp-570245,Ba2GaGeN,0.0
mp-1473,Fe7W6,0.0
mp-569745,YbMgSn,0.0
mp-379,AgSe,0.0
mp-853249,Li4Mn3OF8,1.7754
mp-21084,In6Ga2PtO8,0.5671999999999997
mp-505233,Cs2Sn(H2N)6,2.5332
mvc-6250,CaTa2CuO7,0.5582999999999999
mp-12553,PrAl3,0.0
mp-1031703,Mg6NiBiO8,0.7655000000000003
mp-555707,S4N2O3F,1.3392
mp-641183,Ce4Te3N2,0.0
mp-560049,CuSeO3,0.0
mp-867880,La2TlCd,0.0
mp-20021,DySn2,0.0
mp-4142,MnSbPd,0.0
mp-974400,Kr,7.1796
mvc-3120,Te3W5O18,0.0
mp-763856,Mn3OF6,0.4953
mp-738684,K5YH8(CO2)8,4.4154
mp-1100152,CeMg6C,0.0
mp-1078719,V2CoO6,1.5677
mp-759821,Sb3O2F5,3.4665
mp-20915,Cs2NaMn(CN)6,0.0007999999999999986
mp-1036397,SrCaMg14O16,3.1524
mvc-3347,MgCrO2,1.0150000000000006
mvc-8151,MgSn(GeO3)2,2.2264000000000004
mp-764898,V3O5F,0.0
mp-767446,CoP2O7,0.0
mp-3938,ZrSiS,0.0
mp-553248,CsLaNb2O7,1.4413999999999998
mp-761667,NaV6O15,0.0
mp-995234,HCO,4.3171
mp-1017062,Mg6WC,0.0
mp-1074856,Mg7Si4,0.0
mp-866146,LiSm2Ir,0.0
mp-579529,Na3MoH6(CO2)6,3.8578
mp-12265,SrCuF4,0.7596999999999999
mp-6964,NaTbO2,3.8925
mp-625823,Be(HO)2,5.0360000000000005
mp-697772,Li3V2P5O18,1.1216000000000002
mp-554371,CaSiBHO5,5.3854
mvc-16569,ZnFe2(PO4)2,2.7890000000000006
mp-1016,PuGe2,0.0
mp-5137,Zr2SbP,0.0
mp-562412,Ag3F8,0.3233999999999999
mp-7984,KOsF6,1.3684
mp-867932,Sm2MgGe2,0.0
mp-1080794,TbPRu2C,0.0
mp-1096639,ZnGeRu2,0.0
mp-9575,LiBeSb,0.8731
mp-28495,ZrBr2,0.019200000000000102
mp-1079219,UAlIr,0.0
mp-31809,Li2FeP2O7,4.1143
mp-1096685,Nb2CoTc,0.0
mp-777464,Li4Ti5Cr3O16,0.0
mp-760939,Cu6OF11,0.0
mp-17097,SrIrO3,0.0
mp-1030154,Te4Mo3W(SeS)2,0.0
mp-566811,LiCr3O8,0.6577999999999999
mp-753139,Li6CuF8,0.0
mp-767983,LiV(CO3)2,2.1593
mp-1031733,Mg6NbNiO8,0.0
mp-556797,K2Si3SnO9,3.8617
mp-1235,TiIr,0.0
mp-1078595,H4W,0.00019999999999953388
mp-28503,Al10Si2O19,3.3810000000000002
mp-560085,Bi24Cl10O31,2.1162
mp-600065,SiO2,5.3276
mp-867128,Sm2PdRu,0.0
mp-16037,Dy2TeO2,1.0886000000000005
mp-542267,CaV4(CuO4)3,0.022299999999999542
mp-759998,Li4Nb(TeO4)3,0.0
mp-1028171,KCaMg14,0.0
mp-680422,CBr4,2.9089
mp-766869,V2Bi24O41,1.6562
mp-1001015,Y2ZnS4,0.6698
mp-1074855,Mg7Si4,0.0
mp-849060,VS2,0.0
mp-973834,PdAu3,0.0
mvc-8339,MgCr2O5,0.0
mp-769023,Ba2Y7Cl25,4.1259
mp-1033542,BaSrMg6O8,0.06709999999999994
mp-642731,CeH3(CO2)3,0.0
mp-745155,Na2Ca6Mg7Fe(SiO3)16,0.01949999999999985
mp-561170,Ba3ZrRu2O9,0.0
mp-22014,Sc2SiB2Ir5,0.0
mp-676541,Na4Cr13Se23,0.0
mp-849252,Li2VF5,2.0328
mp-557189,LiPO3,5.5752000000000015
mp-756852,TbNbO4,2.8903
mp-764345,CrPO4,2.1378000000000004
mp-978292,MgP,0.0
mp-863842,Ba2ScFeAsO3,0.0
mp-504620,MgMo2O7,3.6743
mp-27641,CsBr3,2.1967
mp-1078318,Mn(SbO3)2,1.2785000000000002
mp-853163,Li4Co(OF)2,1.8578
mp-30312,Ca2SiIr2,0.0
mp-1074285,Mg4Si3,0.0
mp-754678,BaTaO3,0.0
mp-1038358,Mg30AlNiO32,1.5950000000000006
mp-19884,Mn3P,0.0
mp-1356,Sb2Pd,0.0
mp-568672,YbGeIr,0.0
mp-756309,Ce4DyO9,2.1512
mp-17912,Rb3SbSe3,2.3028
mp-777493,Li3Fe4(OF3)3,1.9361
mp-1029179,MoW(SeS)2,0.581
mp-763697,Li(CoO2)3,0.0
mp-772425,Li3V(SO4)3,0.0
mp-764011,NaV(PO4)2,1.8202
mp-1097538,Zr2PdAu,0.0
mp-643105,Ba3NaBiO6,0.3971
mp-972541,SmTmTl2,0.0
mp-1076286,Eu2Cr2O5,0.0
mp-1031788,HfMg6NiO8,0.0
mp-644226,BaH2C2O5,3.1714
mp-542374,KSn,0.7336999999999998
mp-680191,Na2Ti2Se9,0.9515000000000002
mvc-16479,Ca3CoRhO6,0.0
mp-40189,BaLiLaTeO6,2.9525999999999994
mp-695793,ZnAs4(HO2)8,0.12529999999999994
mp-979433,YLuCu2,0.0
mp-769961,Li4Ni3SbO8,0.0
mp-778715,LiMn2F5,3.0496
mp-775287,Fe10OF19,1.4960999999999998
mp-1079534,EuP3,0.0
mp-1098619,Mg30MnAlO32,0.0
mp-1096757,NbCr2Re,0.0
mp-744081,K6W2N4O3,2.0547000000000004
mp-1073857,MgSi,0.0
mp-850135,Li3V2Cr2O8,0.8428000000000004
mp-556836,Na2EuC(OF)3,0.1379
mvc-8876,TiZnBiO5,0.0
mp-853270,Li5Mn6(BO3)6,0.3240000000000001
mp-1032543,HfMg6ZnO8,0.0
mp-557122,RbAu(SeO4)2,1.4106
mvc-12304,V2P2O9,1.1039
mp-1002115,LaPd,0.0
mp-601210,H5C2NO4,3.0878
mp-34492,Na2TbO3,0.0014999999999999456
mp-9712,Ba3BPO3,1.4649
mp-782653,Ca2CrO4,1.8761
mvc-9925,LaMgCrSnO6,2.502299999999999
mp-572763,TaP4(SCl)5,2.1404
mp-766996,Fe4OF6,2.3076
mp-1078614,LaCdPd,0.0
mp-7171,TmP,0.0
mp-669521,Nb3Te4ClO15,2.3493000000000004
mp-23100,Sr2LuBiO6,1.9118
mp-755549,Y2TeO6,2.5392
mp-973,U2N3,0.0016000000000016
mp-541214,KS2O3,3.8173
mp-773345,VCrO5,1.1569
mp-753802,Sc2Ti2O7,3.5775
mp-623814,Hf8FeTe6,0.0
mp-1096175,CdPd2Pt,0.0
mp-557953,Hg3TeO6,0.6009
mp-866637,KPPdS4,1.477
mp-769624,Li3Co3CuO8,0.0
mp-850769,Li9V14O35,0.4667999999999999
mp-686371,Na11La7Th2Ti20O60,1.8209
mp-1031593,BaMg6VO8,0.6301999999999994
mp-29980,Nb4B3C2,0.0
mp-779993,Li2MnFe(BO3)2,3.105
mvc-2285,Mg2Co9O13,0.0
mp-704461,Ba3La7Mn(Co3O10)3,0.0
mp-21483,Nd3In,0.0
mp-1019104,CaSnHg,0.0
mp-676861,AlSbO4,1.6006999999999998
mp-569348,TlGaBr4,3.5506
mp-505200,CoCuP2O7,0.2734000000000001
mp-680722,As2Pb14Cl4O17,1.9689
mp-744242,Na4TeMo6H40(NO20)2,0.008399999999999963
mp-853265,V4O5F7,1.6077
mp-4251,Pr(Sb3Os)4,0.0
mp-774557,Er2TeO6,3.0127
mp-568561,K10MgMo7O27,3.7119
mp-1039775,NaMg30BO32,4.4525000000000015
mp-753211,FeCuS2,0.0
mp-1016646,Mg6SbMo,0.0
mp-763358,Fe4OF7,0.8345
mp-570598,SrSi7N10,3.9087
mp-541934,Al(FeO2)2,0.018000000000000682
mp-625530,H2W2O7,1.588
mp-689929,LiV(PO4)2,1.3530000000000002
mp-20605,PbC2(SN)2,2.6512
mp-30440,Be22Mo,0.012299999999999756
mp-977425,Ta2CrRu,0.0
mp-6102,NdNi2B2C,0.0
mvc-159,V4ZnO8,0.0
mp-744380,Ca9LaTi4Mn6O30,0.0
mp-762472,Li9Co13O28,0.0484
mp-27275,Li3BO3,5.1473
mp-768053,Na2FePCO7,2.444
mp-770065,Gd2TiO5,3.1629
mp-1033938,CsKMg14O15,1.4250999999999996
mp-1025357,Lu2Fe2Si2C,0.0
mp-691043,Ba10Pr5Nb(Sn2O15)2,0.0
mp-1022060,Mg6TiCo,0.0
mp-1021304,KNaMg6,0.0
mp-22467,Sn(PbO2)2,2.063400000000001
mp-11441,Hf2Ga3,0.0
mp-17124,Pr5Ge3,0.01889999999999992
mp-22249,CeSbRh,0.0009999999999994458
mp-778848,In3NO3,0.03059999999999974
mp-20296,In2Co,0.0
mp-1026549,BaMg14Sb,0.0
mp-580562,BaGd2Mn2O7,1.7870000000000004
mp-22923,BiPt,0.0
mp-558688,Ba2Sc2B4O11,3.3548