mpid,formula,gap pbe
mp-6647,BaYAgSe3,1.3282000000000005
mp-1078740,Ho3(CoGe2)2,0.0
mp-2203,YB6,0.0
mp-1087479,CrCo3,0.0
mp-1069057,Sr(CoSi)2,0.0
mp-626112,H7NO6,3.3896
mp-1038760,Ca2Mg,0.0
mp-554762,KXeO3F,2.8936
mp-988945,AlAs,0.3385000000000007
mp-555305,NaNb(OF)2,3.1327
mp-653891,NbTe2(SeI3)2,0.9449999999999998
mp-677177,RbAl6H20N5F24,3.1874
mp-1093805,Zr2CoIr,0.0
mp-540392,LiCrPO4,2.6499
mp-862486,Sc2AlOs,0.0
mp-850991,Mn6O7F5,0.0
mp-974451,K2Al2O3F2,4.0212
mp-30034,MgBr2,4.4707
mp-685871,Pr(FeSb3)5,0.0
mp-27734,CrBr3,1.3343
mvc-15850,MgCoF6,1.1701
mp-2765,PuB,0.0
mp-18555,KEr(SO4)2,5.8689
mp-753327,LiSiBiO4,3.3908
mp-769655,Mg2CoO4,0.7200000000000002
mp-1021306,LiMg6B,0.0
mp-764799,LiFe2(BO3)2,1.7641
mp-573763,Cs2Te,1.7740000000000002
mp-757527,LiTi6O12,0.0
mp-1076861,SrCa7FeCo7O24,0.0
mp-21402,PrCr2Si2C,0.0202
mp-24421,BaH2Cl2O7,5.1664
mp-1096086,LaPd2Pb,0.0
mp-1093902,BaMgTl2,0.4052000000000002
mvc-8341,MgCu3(NiO3)4,0.0
mp-8109,EuB4O7,2.1747
mp-647813,Cs2CrO4,3.2422000000000004
mvc-11960,MgV2O5,2.1854000000000005
mp-1097144,LiTlHg2,0.05270000000000018
mp-14285,CoP2,0.436
mp-15783,KSmS2,2.2759
mp-585234,LiCo2(PO4)3,0.0
mp-974558,Na,0.0
mp-34418,AgPF6,3.236
mp-567652,Cs2LiYCl6,4.8986
mp-17633,Er2SiSeO4,2.5551000000000004
mp-24656,YH3(SO4)3,5.2879999999999985
mp-1033901,HfMg14CrO16,0.0
mp-775232,LiCr4(PO4)3,1.2445999999999993
mp-1027760,Te2Mo3W(Se2S)2,0.0
mp-1017519,IrC,0.0
mp-866058,LiGd2Ru,0.0
mp-1021300,KMg6Ga,0.0
mp-530844,Ga23N5O27,1.1327000000000005
mp-29404,La2CCl,0.0
mp-10695,ZnS,2.0186
mp-1029799,Sr4TiN4,1.0132999999999996
mp-557123,Na2CuSi3O8,0.7571000000000001
mp-773778,LiCoGeO4,1.621
mp-13500,Sm3Si2BO10,4.7747
mp-1034698,SrMg14SiO16,0.0
mp-2849,US2,0.0
mp-1095514,BC5,0.0
mp-1070687,MnNF3,0.0
mp-20339,Ti2InNi2,0.0
mp-864755,LiAcTe2,0.5574000000000003
mp-1098907,Mg30FeCoO32,0.0
mp-771976,Rb2Be2O3,3.6274
mp-27280,Na2MnCl4,2.1353
mp-1017481,LaMg6Cr,0.0
mp-22056,YIn2Ni,0.0
mp-1016214,Bi2H18C3(IN)9,2.8456
mp-866046,Ti3In,0.0
mvc-15479,CaLa2WO6,0.0
mp-626308,Ca(H8O5)2,3.3662
mp-1063865,Sc2MnSi,0.0
mp-773133,K3CuB2P4H3O17,0.7381
mp-8543,Na3AlAs2,0.8472
mp-31507,Sb2Te4Pb,0.31950000000000056
mp-865236,Tm2ZnOs,0.0
mp-772993,Li2Ti7Nb6O30,2.2457000000000003
mp-18805,Sr2CoMoO6,1.1019999999999994
mp-774203,Cr2WO6,2.2536000000000005
mvc-12821,ZnCo2(P2O7)2,0.5617999999999999
mp-759450,Sb5O7F,2.662
mp-1075433,Mg5Si6,0.0
mp-17025,Sr3Y(BO3)3,4.4202
mp-758934,Dy3Co29(Si2B5)2,0.0
mp-555190,KUCrO6,1.6241
mp-1028074,Mg14MnSb,0.0
mp-770920,Li4TiMn5O12,0.03560000000000008
mp-13985,Li2PdF6,1.8867
mp-779528,Ti17(NO4)6,0.1524000000000001
mp-566695,NdSbMo2O9,3.2597
mp-645508,Ti4Cr3(PO4)6,0.05640000000000001
mp-553991,Ti(GaO2)4,2.3608
mp-1006888,KYS2,2.3337000000000003
mp-779364,Li2CoBO4,1.4436000000000002
mp-22168,Mn(InS2)2,0.9592999999999998
mp-10255,Nb3B4,0.0
mvc-3410,MgAgF5,0.010400000000000187
mp-780877,Li2Mn3(BO3)3,0.0
mp-568774,Ca36Sn23,0.06709999999999994
mp-759031,Bi19(O9F)3,2.0105000000000004
mp-776475,Al2O3,5.2156
mp-972662,Sm2Fe17C3,0.0
mp-866385,TlW2(Cl3O)2,0.0
mp-1029014,TeMoWSeS2,0.0
mp-20941,UIn3,0.0
mp-23283,Sm4Bi3,0.0057999999999998044
mp-1078584,Mn3Ga,0.0
mp-1022954,Mg6MnMo,0.0
mp-756066,Ho2Zr2O7,2.4812
mvc-3900,V2Zn3(SiO4)3,0.0
mp-541407,RbCuSnS3,0.13260000000000005
mp-620812,Y2Ge5Ru3,0.0
mvc-5096,WO3,1.6755
mp-21385,In3Ni2,0.0
mp-542523,Fe7(PO4)6,1.5033
mp-635460,V3AuN,0.0
mp-17625,Na2Cu4S3,0.3664999999999994
mp-762739,Li3Fe5O12,0.0
mp-770184,Li3Co(CuO2)4,0.0
mp-775104,Li3TiV4O8,0.0
mvc-2762,Ba2Tl2Zn2Sn3O10,0.0
mvc-12603,Mg(FeO2)2,1.8052
mp-1021509,Ce(FeAs3)4,0.2656000000000001
mp-1094415,Y5Mg,0.0
mp-775900,NaLiCu(PO3)3,1.2606000000000002
mp-759878,RbMgH12(ClO2)3,4.8651
mvc-9378,PrMgMn2O6,0.0
mp-570584,TaSi2H35(C3N)4,3.2977
mp-752525,LiAgF2,1.7691
mp-679983,CsP4N7,3.865400000000001
mp-765266,LiMn2F7,1.5734
mp-652854,BiRu2(CO)6,1.1317
mp-763576,Li3(FeO3)2,0.0
mp-961720,ZrAsRh,0.0
mp-9937,USbSe,0.0
mp-1037737,YMg30VO32,0.42689999999999984
mp-554935,Pr8Sb2S15,1.8916
mp-631484,TaTiAl,0.0
mp-1079440,NiAsPd,0.0
mp-541914,MnHgC4(SN)4,1.6955
mp-753070,Sr3Rh2O7,0.0
mp-1097014,KSnBr3,2.2744
mp-3470,MgSiO3,4.6484
mp-31361,EuIBr,1.1263999999999994
mp-1079134,Ni3C,0.0
mp-1018134,Li,0.0
mp-672194,CaIn4Ni,0.0
mp-568828,Hg6BiSb4Br7,1.0223999999999998
mp-757612,Ag7(PbO3)3,0.0
mp-25706,MnH8(ClO2)2,4.2131
mp-2058,Ni3B,0.0
mp-697802,LiNi2P3O11,0.0
mp-763075,Fe2O3F,0.0
mp-17638,Rb3SbSe4,1.3317
mp-697660,Cu2H6C3N4O,2.1485
mp-546546,SiO2,5.5638000000000005
mp-20449,CeInIr,0.0
mp-9277,Ce2CrN3,0.0015999999999998238
mp-758897,LiCuPO4,0.0
mp-865728,Ti2ReNi,0.0
mvc-7714,Ca(MoO2)2,1.3414
mp-1067743,YbCoC2,0.0
mp-29656,AgBiTe2,0.13320000000000046
mp-30451,SrCuBi,0.0
mp-571171,Ga2PbSe4,0.5207999999999999
mp-1076877,Sr2Ca6TiMn7O20,0.0
mp-779882,Mn6O5F7,0.07339999999999991
mp-1097270,Y2RuPt,0.3537999999999997
mp-9254,Al2Te5,1.0356
mp-1017345,RbNaMg6,0.0
mp-655580,CeCu4Sn,0.0
mp-627077,Ba(HO)2,4.109
mp-690558,SrLaMn2O6,0.0
mp-31369,Gd2B4O9,2.8553
mp-771465,Li4Ti5Ni3O16,0.3708
mp-766575,Li8TiS6,2.6980000000000004
mp-985283,Ag3Ge,0.0
mp-1008284,Cr3Ni,0.0
mp-1080449,SmZnPd,0.0
mvc-5592,P2WO7,2.4811
mp-774242,LiTaWO6,3.1938
mp-8290,BaSnF6,4.9883
mp-1034204,CsMg14TiO16,0.0
mp-773727,Li3Mn2(PO4)3,0.8770000000000002
mp-1071462,CeRu2,0.0
mp-1035096,Mg14TiCoO16,0.0
mp-8947,Sr(BS2)2,2.9266
mp-505747,TlIn5S6,1.0
mp-1080197,Mn3N4,0.0
mp-734160,NaH5(SO4)3,0.0
mp-1029243,TeMoWSe3,0.0
mp-557909,Zr(PO3)4,4.1549
mp-775153,Li3FeOF3,3.0904000000000003
mp-780489,Fe6O7F5,0.23629999999999995
mp-675004,Ge6Bi7O22,0.6659999999999999
mvc-8654,VZn(Si2O5)2,1.6839999999999995
mp-1096925,CsBaI3,3.6246
mp-21075,HfC,0.0
mp-973256,LaMgTl2,0.0
mp-4584,Tl3BO3,1.3030000000000002
mp-13074,LuNiPb,0.0
mp-757483,Y6O5F8,5.0221
mp-743671,K4Ti3Mn(PO4)6,1.2493
mp-863894,Li3V3P8O29,0.8795
mp-31096,Li3AlH6,3.5929
mp-11192,TaSi2,0.0
mp-770600,DyWO4,1.9468
mp-541375,CdH4Br3N,2.5461
mp-705625,MgMn2O4,0.3611999999999997
mp-1069139,SrSi3Ni,0.0
mp-690799,Zr(TiH2)2,0.0
mp-510277,Ce3S2O3,0.002100000000000436
mp-774421,Li3Fe8(BO3)8,1.6997
mp-18423,CsYbP2O7,0.0897
mp-12838,Tm3FeSi3,0.0
mp-1077660,Sr8Fe7CoO24,0.0
mp-570872,CeCo3,0.0
mp-570441,Sm4Ga16Co3,0.0
mp-774347,Mn3Fe(PO4)6,0.0
mp-571387,MgCl2,4.2732
mp-540545,MnH8(BrO2)2,4.0044
mp-1782,ScSe,0.0
mvc-7082,Co(SiO3)2,0.8842000000000001
mp-558336,Ho2O3,4.0554
mvc-15374,CuN,0.0
mp-1079143,CoGe,0.0
mp-5149,NbAlCo2,0.0
mp-2666,CrSb2,0.01720000000000077
mp-703673,YbVO3,0.3999999999999999
mp-626066,H7NO6,3.1068
mvc-3646,Zn3Si3(AgO6)2,0.2208000000000001
mp-989583,Rb2LiInCl6,2.8293
mp-1099275,Mg6FeSi,0.0
mp-24955,Sr4Fe4O11,0.12440000000000008
mp-28196,KH9O5,4.7217
mp-780087,LiMnSiO4,1.1322000000000003
mp-862620,IrRu3,0.0
mvc-2162,Zn(MoO3)2,0.7704
mp-740752,BaRe2(H2O3)4,4.0226
mp-767996,Li3Fe2(SiO4)2,1.6259
mp-772191,Tm2TeO6,3.0533
mp-9406,Li2La2Ti3O10,2.073899999999999
mp-565741,FeH12C2N2F5,3.5842
mp-697593,Te7WCl5O,0.6447000000000003
mp-504861,Y4CoB13,0.0
mp-4748,NaNbO3,1.6810000000000005
mp-32504,V3(P3O10)2,1.0560999999999998
mp-1069811,Hf2H2Pd,0.0
mp-567871,Nb5Si3,0.0
mp-1096596,TiCuAu2,0.0
mp-1036461,Mg14AlCO16,0.9901
mp-505712,CsHoZnSe3,2.4693
mp-557324,Cs2CrF6,0.0
mp-768369,Ba2YF7,6.2373
mp-638253,EuIn4,0.0
mp-676200,Eu(ErS2)2,0.4770000000000003
mp-980387,DyYIr2,0.0
mp-567530,KMnCl3,1.9598
mp-10039,Pr3AlC,0.0
mp-36052,ScUS2,0.0
mp-1097102,Ti2ZnOs,0.0
mp-696815,AlH4NF4,6.8114
mp-1022148,SrMg6Cu,0.0
mp-1031616,Mg6CrNiO8,0.0
mp-867843,RbUTe3Au,0.0
mp-25929,Li3Bi2(PO4)3,3.7495
mp-865450,ThGa3,0.0
mp-560450,Sb2SNF11,3.5649
mp-762352,P(H3C)3,4.1736
mp-1037599,KMg30FeO32,2.4115999999999995
mp-1093791,Mn2AlTc,0.0
mp-504900,Eu(SbPd)2,0.021800000000000708
mp-756422,Li4CuSi2O7,0.6356999999999997
mvc-14842,BaCa3(CuN2)2,0.012700000000000156
mp-765811,Li4Ni3Sn(PO4)4,2.0701
mp-568631,Lu3Mn3Ga2Si,0.0
mp-868119,MoH18C5(NO)4,4.6578
mp-568384,ScB2,0.0
mp-1080062,BaGdCo2O5,0.0
mp-756136,CaPbI4,2.6676
mp-17433,NaSr4(SbO4)3,2.0937
mp-29304,Y2InCl7,4.0594
mp-697788,MnP2O7,0.1718
mp-567038,Ba2V4Cd3O15,2.8927
mp-763173,Mn6O7F5,0.0
mp-768057,Li2VCrO4,1.7728000000000002
mp-562041,BaCrO3,0.0
mp-1084767,Zr2InN,0.0
mp-989562,Cs2LiTlF6,3.4749
mp-762481,Li8V3P8O29,0.02119999999999989
mp-1078554,KNa3H4,2.9382
mp-559281,Na3Cr2(PS4)3,1.2925
mp-568315,CdCu2,0.0
mp-1073592,MgSi2,0.0
mp-761643,Li6Ni3P6WO24,2.2178
mp-29680,Ta2Bi4O11,2.8073
mp-1016107,Hf6Zn6N,0.0
mp-673833,Li7VAs4,0.893
mp-559663,SrLiNiF6,2.3098
mp-1021878,Mg6CrNi,0.0
mp-2363,HfMo2,0.0
mp-567146,Si3PH27C9BrN2,2.8687
mp-972406,YbSi2Ni,0.0
mp-759116,YbAlO3,0.0
mp-978807,Sm2TlHg,0.0
mp-554718,Bi(BO2)3,3.8529
mp-24130,CaP2(HO)4,5.5901
mp-1036103,Mg14MnBO16,0.13060000000000027
mp-671913,MoSe2Cl4O,1.0886
mvc-10555,Ba2Tl2Zn3(CuO3)4,0.0
mp-763535,LiP5W3O19,0.9576000000000002
mp-766937,LiVF6,3.0894
mvc-8609,MgSn2(PO5)2,2.5621
mp-864895,Be2NiRh,0.0
mp-759874,LiCu(PO3)2,1.2797999999999998
mp-1096330,LiAgHg2,1.0407000000000002
mp-18062,Na10YbSn12,0.6806000000000001
mp-622109,Co(PO3)2,2.8128
mp-1036730,Mg30SiSnO32,0.9231999999999996
mp-776494,LiVF4,2.0631
mp-4656,Y(Al2Fe)4,0.02569999999999961
mp-1078982,YbCuSb2,0.0
mp-579731,KV4Ag11O16,0.9071999999999998
mp-976349,LuH2ClO2,4.8104
mp-762038,Li4CrCo3(PO4)4,1.2519999999999998
mp-557133,Cs2KMoF6,4.1117
mp-754157,AlInO3,2.1581
mp-558831,KNdPdO3,0.6506000000000003
mp-764466,Mn12O5F19,0.0
mp-685149,K5Sb4,0.0
mp-995226,H2CO,6.0267
mp-704632,Ba2Sm2Fe4O11,0.8254000000000001
mvc-9991,CaMn2O4,0.0
mp-566429,Rb5ErHf(MoO4)6,3.7417
mp-974788,Nd,0.0
mp-777559,LiFeF4,3.1787
mp-1028107,NaMg14Mn,0.0
mp-744086,SrLaMnRuO6,0.0
mp-29305,Re2PbO8,3.7674
mvc-15933,Ca2Bi3O8,0.0
mp-982376,SrHg3,0.0
mp-20400,Ce(GePt)2,0.0
mp-555448,Rb3Pr3(PS4)4,2.2856
mp-1080797,CsHg,0.0
mp-1031860,CaMg6NbO8,0.0
mvc-16791,Al(NiS2)2,0.0
mp-19179,Ba2V(SiO4)2,2.6086
mp-756474,Rb3YO3,2.2030000000000003
mp-10342,Tm6ReO12,0.08610000000000008
mp-530164,MgAl2O4,4.5551
mp-705069,LiMnPO4,3.2117
mp-768125,Na3GePCO7,3.6381
mp-754556,Nb3N5,0.6958000000000002
mp-768005,LiNiSnO4,0.4621999999999997
mp-9920,TiS3,0.2284999999999995
mp-766666,Li4V3P8O29,0.9804
mp-850993,LiMn4(PO4)3,2.7473000000000005
mp-32760,LiP5,0.5134999999999996
mp-684841,KMg3AlSi3(O5F)2,3.7647
mp-698627,Ti5Fe11O24,1.1195999999999997
mp-764641,Li2CoSiO4,2.9181
mp-1099193,YMg14CO16,0.4442000000000004
mp-776589,Li9Sb3P8O29,3.827
mp-504662,SbClO,3.0971
mp-776200,GdAsO4,3.4222
mvc-15165,Y7Cu3(SiSe7)3,0.0
mp-978514,SmTm3,0.0
mvc-15019,V2(PO4)3,0.9778
mp-1079676,LiBeH3,4.6435
mp-865222,Dy2RuRh,0.0
mp-1095903,LiAg2Au,0.484
mvc-10720,Mg(BiO2)4,0.4612000000000003
mp-1077183,PrGe2,0.0
mp-542333,Cu9S5,0.1490999999999998
mp-1018826,NdGeAu,0.0
mp-1557,Mg3Au,0.0
mp-777146,CdFeO3,0.0
mp-43048,NaEuTiNbO6F,0.0020000000000000018
mp-25489,Co(HO)2,0.0
mp-567844,Gd2Fe2I,0.0
mp-1078457,Ba2ZrTiO6,2.2094
mp-1096739,NaSnRh2,0.0
mp-23230,PCl3,4.0342
mp-10516,Dy6FeTe2,0.0
mp-1028434,TeMoWSe3,0.0
mp-745134,Fe3P2(H2O3)4,3.7133
mp-16914,Y2Si5Ni3,0.0
mp-28730,In7Cl9,2.1903000000000006
mp-643033,KPH2SO3,4.5181
mp-27189,Si3Cl8,4.7516
mp-554903,TbSeClO3,4.3781
mp-766268,Bi12O16F5,0.0
mp-1038936,MgBi,0.0
mp-773383,V2Cr3Sb3O16,1.4335000000000004
mp-676154,Yb(DyS2)2,2.1483000000000003
mp-1025127,UB2Rh2C,0.0
mp-633671,Mn3AgAs3(HO6)2,1.4283
mp-28021,Sr5(Br4Cl)2,4.443899999999998
mp-1031652,Mg6CdNiO8,1.5191
mvc-4316,Y2Cr3(SiO4)3,2.0696
mp-1026422,Mg14BiSb,0.0
mp-568949,TlBr,2.1678
mp-621581,P3Rh4,0.0
mp-705869,Mn2CuO4,0.0
mp-764168,Co6O5F7,0.7756000000000003
mp-761385,LiCrPO4,2.4433
mp-15004,Ca3ZrSi2O9,4.4537
mp-559523,RbMgF3,2.2027
mp-1097744,C3N,0.0
mp-2084,Si5Ir3,0.9666999999999994
mp-853228,LiMn2(BO3)2,0.0
mp-24954,NaAl6Fe3Si6B3O30F,2.5556
mp-770612,Li4CrH8SO7,2.5109
mp-606149,SrGd2Co2O7,0.04570000000000008
mp-20473,Mn2Ge,0.0248999999999997
mp-770036,Li4Mn3V2Cr3O16,0.6577999999999999
mp-674804,Sm2PbSe4,1.6411000000000002
mvc-1259,CaNiO2,2.0118
mp-776750,Mn7Nb(PO4)12,0.0
mp-19295,LuVO4,2.6046
mvc-11309,Cr2S5,0.3285
mp-32565,Tb4H9,0.0
mp-1035654,Mg14FeBO16,0.4707000000000008
mp-771665,Li2MnNiO4,0.29559999999999986
mp-13854,B3Ru2,0.0
mp-743779,FeP2(H4O5)2,4.1734
mp-690121,Zn(FeO2)2,1.9325
mp-558955,Ba2CoReO6,0.16670000000000051
mp-32635,Sr3P2,0.3855
mp-973544,Lu2BeOs,0.0
mp-3790,SrNb8O14,0.34440000000000026
mp-541318,CsTi3Si2P6O25,0.007300000000000306
mp-16741,TmSnAu,0.0
mp-997498,Ce4GdO9,2.1471
mp-780498,LiCr3P3(HO6)2,1.9114
mp-974310,In3Ge,0.0
mvc-14355,CaNiF4,4.0193
mp-768079,Li7(NiO2)11,0.0
mp-780474,Li3MnFe2(BO3)3,2.8421
mp-779245,Mn3(OF2)2,0.25849999999999995
mp-1098341,KMg30TiO32,0.6493000000000002
mp-24608,K2AlH2OF5,5.9967
mp-763349,Li2MnF4,3.969
mp-8870,LiMgAsO4,3.4544
mp-1095292,GeF2,4.1959
mp-767220,Mn(PO4)2,1.0123
mp-1016317,Mg7Fe,0.0
mp-22463,TiInNi2,0.0
mp-1097275,NaCdPb2,0.0
mp-760790,LiCuF4,0.0039000000000002366
mp-978291,Mg3Pa,0.0
mp-5427,Mg2P2O7,5.3203
mp-570957,CsSiTe3,1.258
mp-766846,Li2CoSn(PO4)2,1.6075
mp-954,BaB6,0.0
mp-1036237,Mg14MnFeO16,2.2435
mp-17518,Sr2TaN3,2.5465000000000004
mp-19975,Sr2PrO4,0.001400000000000068
mp-676956,Zn8B4H3O15F,3.0045
mp-28516,LuMnGe2,0.0
mp-16160,Sm4Au2O9,1.9877
mp-20070,GdTiGe,0.010000000000000677
mp-555188,Ba17Ho16Zn8Pt4O57,2.2984000000000004
mp-707349,RbB6H8O7,2.2325
mp-1079413,Zn(OF)2,0.035499999999999865
mp-8709,KIn(GeO3)2,2.3073
mp-763619,Li2Fe(SiO3)2,3.3925
mp-1098587,Mg30BWO32,1.8309999999999995
mp-2780,Fe3Se4,0.0
mp-1036398,Mg14AlBO16,1.1822
mp-647553,VP2Cl7O4,2.0934
mp-20189,SrMnGe,0.019200000000000102
mp-1031540,Mg6AlSiO8,0.0
mp-20655,SmGeRu,0.0
mp-705756,La9Mn10O30,0.032099999999999795
mp-1589,TiCr2,0.07340000000000035
mvc-9147,MnZn(GeO3)2,1.158
mp-1036975,Mg30NbCoO32,0.7907000000000002
mp-29252,Sn2ClF3,3.5512
mp-991439,ZrCu,0.0
mp-767728,Li6Mn(OF)3,2.1
mp-1091413,CdCu2SnTe4,0.0
mp-2818,YbAu,0.15910000000000002
mp-996992,LiAgO2,0.4686999999999999
mp-6179,KLiSO4,5.3221
mp-30408,MgAu3,0.0
mp-636212,GaFe2Co,0.0
mp-1080105,CeAsRuO,0.0
mp-27878,NaSb5O8,2.6771
mp-1097462,Mg2CuAu,0.15580000000000016
mp-5760,NdSF,1.2363000000000004
mp-776235,Zr2N2O,0.07620000000000005
mp-1004530,CsBPb(IF2)2,2.6219
mp-22017,LaIn2Ir,0.0045000000000001705
mp-7379,TlCdSb,0.0
mp-1028368,NaMg14Ni,0.0
mp-675677,Yb(SmS2)2,2.0578
mvc-6738,MgCuW2O7,0.01100000000000012
mp-1098655,Mg30AlCO32,0.0
mvc-9600,Zn(SnO2)2,0.07249999999999979
mp-714989,Fe3O4,0.3842999999999999
mp-849463,Li11(FeO3)4,0.0
mp-571154,Sr11Al4Sn3,0.0
mp-780165,Mn6O5F7,0.0
mp-530074,B4C,0.011499999999999844
mp-1095916,Si2TcRh,0.0
mp-977445,Nd2ZnIr,0.0
mp-774874,Li3Ti2CuO6,0.2154999999999996
mp-686736,Sr5Li25La7(BiO6)8,1.9155
mp-981249,Y3Tm,0.0
mp-978952,SnPbO3,1.7927
mp-762825,Li2Mn(PO3)4,3.8417
mp-561165,VBi2O5,0.7919
mp-1095443,ScFe2,0.0
mp-721712,NaH4CSNO2,3.9944
mp-721618,SrB6(H4O7)2,5.2619
mp-560597,Na8Si6SnO18,3.8047
mp-765821,VCo3O8,0.0
mp-555936,RbNa7(CoO3)2,1.0163
mp-2824,AlPd2,0.0
mp-28085,KAs2F7,4.7762
mp-999507,MnSn,0.0
mp-1027172,Te4MoW3S4,0.0
mp-540806,Ca2IrO4,0.0015999999999998238
mp-21436,GdCuSn,0.0011999999999998678
mp-581712,TiNiSb,0.0
mp-616641,K2UI5,0.3168000000000002
mp-1098856,SrMg30CuO32,0.2515999999999998
mp-7170,UTeP,0.0
mp-672679,Y4InIr,0.0
mp-753022,NaGa5O8,1.5017999999999998
mp-1096842,Ba3SnS5,1.6495000000000002
mp-866117,HfZnAu2,0.0
mp-2573,NpAl3,0.008900000000000574
mp-763936,MnOF,0.026399999999999986
mp-779716,Cs4GeO4,2.7671
mp-675104,Na3YCl6,5.2756
mp-754824,SrO,2.5643
mp-769494,Na5Fe2P2(CO7)2,0.956
mp-853216,Ti7Cr12O48,0.8711000000000001
mp-570900,K4Sn9,1.1220999999999997
mp-698649,Al2NiO4,3.1328000000000005
mp-1367,Mg2Si,0.21690000000000031
mp-1094213,MgSn2,0.0
mp-1027624,MoWSeS3,0.4704999999999999
mp-676308,Li2MnBr4,0.0
mp-1040015,CsLaMg30O32,1.4834000000000005
mp-1035674,KMg14CO16,0.0
mp-10621,RbSbS2,1.9475
mp-766723,CoTe2O5,2.0432
mvc-4706,Ca(SnO2)2,0.0
mp-1069204,NdCoSi3,0.0
mp-28523,Li2Ta3N5,0.0
mp-1000712,RbYbS2,0.0
mp-685012,Cr2Te3,0.0
mp-685712,Na2PrO3,0.0
mvc-9868,LaZnCrSnO6,2.2934
mp-1096488,Sc2HgOs,0.08120000000000037
mp-11233,ZrAl,0.0
mp-1022651,Mg6ZnFe,0.0
mp-552169,AgClO2,0.8895000000000001
mp-1078518,Sr2NiIrO6,0.03149999999999986
mvc-16451,Ca3ScCoO6,0.8271000000000002
mp-1033804,Mg14BWO16,0.15399999999999991
mp-753319,Li3Nb4SnO12,0.0
mp-29566,CsNaGe2,0.9986000000000002
mp-1029338,LiV2N3,0.0
mp-5367,K5SnSb3,0.5167000000000002
mp-782645,Li2MnPHO5,2.8968
mp-3871,Ti2SnC,0.0
mp-1096832,Al4ZnS7,3.0107
mp-542429,Mg3Rh,0.0
mp-770367,LiV2(SO4)3,0.0
mp-1094992,MgGa,0.0
mvc-3470,YAgO3,0.028999999999999918
mp-561203,F2,2.7932
mp-1037103,SrYMg30O32,0.4561999999999991
mp-1099279,SrMg6Fe,0.0
mp-23253,RbBi2,0.058999999999999726
mp-756758,CuH4(IO4)2,0.5463
mp-1093935,Sr2TlGa,0.0
mp-866482,CsSi,1.2115
mp-562490,SiO2,5.5997
mp-562480,TlIn5S7,0.7322999999999995
mp-762394,Li3Co2(CO3)4,0.9728
mp-775291,Li2Mn2Cr3O12,1.7395999999999998
mp-780580,LiMnPH2O5,3.3236000000000003
mp-29674,Al2B2Ru3,0.0
mp-705483,NaCa3Fe4(SiO3)8,1.7183000000000006
mp-763222,NbFe3Co2(PO4)6,0.0
mp-778709,Li2FePHO5,3.8225
mp-770262,Li2Mn2(SO4)3,4.3938
mp-555434,As2O5,1.3437
mp-707521,Mg16Si8HO32,0.0
mp-1095263,HoSeF,2.833
mp-1028642,MoW3(Se3S)2,0.8890000000000002
mp-756400,NdBiO4,0.5653000000000001
mp-541368,Tl4V2O7,2.6066000000000003
mp-541452,Co2PHO5,2.4430000000000005
mp-555997,OsC4(ClO2)2,2.3422
mp-568158,Nd2Fe23B3,0.0
mp-1036266,Mg14MnNiO16,1.9126000000000003
mp-23370,CuW3Br7,2.0638
mp-647,NbS,0.0
mp-761647,Li2Si3Ni2O9,3.2408
mvc-6663,YCo3F15,0.5907
mp-1020026,LiBeBO3,6.0842
mp-1099016,Mg14AlCO16,0.4433999999999996
mp-31170,Cd2AgAu,0.0
mvc-8742,CaNiBiP2O9,3.3332
mp-1078295,NaNbO3,3.8336
mp-2935,Li2GeAu,0.0
mp-570763,VCl4,0.0
mp-649833,Tb15(Ni4P3)7,0.0
mp-763882,Li2VCrP2(O4F)2,2.0115000000000003
mp-36699,Ce2Y2O7,1.7347
mp-650944,MnF4,1.4477
mp-16481,TiAlAu,0.0
mp-974387,Nd2AgHg,0.0
mp-558966,Ca5(ReO6)2,2.1161000000000003
mp-561547,SrSiO3,4.6026
mp-1095708,Mg30CrSnO32,1.9355
mp-1096869,C,0.03389999999999998
mp-27798,B4H5,2.8803
mp-565648,KMn(SeO4)2,1.2
mp-865302,Tm2CdIn,0.0
mvc-9118,Si2Sb15O28,0.4256000000000002
mp-20897,Ba4Y2Cu6O13,0.0
mp-771115,Cu2NiO4,0.5085999999999995
mvc-7986,MoAs2O7,2.997
mp-757111,SbOF3,2.5195
mp-541504,U4Tc7Ge6,0.0
mp-14093,TbOF,4.9318
mp-30385,Ho2Au,0.0
mp-558754,Sb4OsC6(O3F11)2,4.434
mp-17753,Nd3RuO7,0.0
mp-755266,Li4Ti3O8,2.1569000000000003
mvc-6096,MgSnAsO5,1.5261999999999998
mp-1099090,BaMg14Fe,0.0
mp-1079120,Nb(BMo)2,0.0
mp-766142,LiFe5O5F,0.9235000000000002
mp-864928,BrCl,1.3235
mp-20497,SrIn2Ir,0.0
mp-743756,CoH12(ClO3)2,3.0715
mvc-10107,Mn2P2O9,0.012700000000000045
mp-863702,Er2MgIn,0.0
mp-616471,Ba2Eu2Ti2Cu2O11,0.0
mvc-14116,Al4(CoO4)3,0.0
mp-2121,ScAl3,0.0
mp-10335,Ba2CuTeO6,0.0
mp-754818,NaTaO3,2.7139
mp-553025,CaBiClO2,3.6207
mp-662572,Ta3In2Cl9,1.2974
mp-1093681,CaInAg2,0.0
mp-504733,Ti3Fe3O,0.0015000000000000568
mp-1018031,KInO2,2.0788999999999995
mp-889,Cr3B4,0.0
mp-540171,Li2Ni(PO3)4,4.5653
mp-29554,WBr5,0.0
mp-738610,LiH20C8ClO4,4.9222
mp-980038,Tl3Ru,0.0
mp-1094665,LiMg3,0.0
mp-1022610,Mg6VZn,0.0
mp-1094789,Mg3Zn,0.0
mp-658087,Cs2CuH12(SO7)2,0.6475000000000001
mp-12056,Ba(POs)2,0.0
mp-753287,CaCdO2,0.3799000000000001
mp-976151,PrErMg2,0.0
mp-17998,Ca(RhO2)2,0.8186999999999998
mvc-9013,MgFe2(PO5)2,0.0
mp-773728,Li5V18O44,0.0
mp-23237,BiF3,4.6808
mp-1037017,SrMg30CoO32,2.8103
mp-772595,NaSiSbCO7,2.8386
mp-1035048,Mg14CoBiO16,0.33119999999999994
mp-766239,Li7V5O12,0.7700999999999998
mp-767317,Li4Mn(OF)2,1.3372000000000002
mp-10868,SmPPd,0.0
mp-720433,Be2As(HO)9,4.205299999999999
mp-1077982,Tb2Fe2Si2C,0.0
mvc-11012,La2MgTiO6,3.2433999999999994
mp-567657,K(CuSe)2,0.0
mp-31933,Li2Mn3(P2O7)2,3.783
mp-30698,PrCu6,0.0
mp-1093589,ZnSbRu2,0.0
mp-25950,SbP2O7,0.0
mp-20973,Ce2S3,0.0
mp-1016618,BaMg6Sb,0.0
mp-767167,LiCo2(PO4)2,0.9205
mvc-7803,ZnCoMo2O7,1.1320000000000001
mp-758316,La10Bi8O27,1.2729
mp-687092,Sm2Mo2O7,0.0
mp-7117,LiAlSe2,3.3406
mp-1027845,Mg14ZrSi,0.0
mp-775824,Zr2N2O,1.6551
mp-781065,Fe2OF3,1.2831
mp-1099217,Mg14SiBO16,0.0
mp-7332,NdP5,0.0
mp-772852,Na3Zn4P4H4NO16,3.8467
mp-696597,B5H9,5.7128
mp-24150,LiNd2HO3,1.8719
mp-313,YC2,0.0
mp-5819,Pr(NiGe)2,0.0
mp-32654,Sc2Te3,0.0
mp-767129,WOF4,5.0486
mp-850112,LiMn2(PO4)2,0.4289000000000001
mp-557639,Ni3TeO6,1.5663
mp-707543,H6C(N3O2)2,2.7113
mp-769204,Li7CuAs4ClO14,0.3601000000000001
mp-504350,Sb(PO3)4,0.0
mp-1098959,Mg30VCO32,1.3156999999999996
mp-772279,Ti2V(PO4)3,0.14999999999999947
mp-773963,Li6V3P8O29,0.7631999999999999