mpid,formula,gap pbe
mp-32011,Mn2NiO4,0.0
mp-864768,LiSnIr2,0.0
mp-779232,Li32Mn3Cr13O48,0.8376999999999999
mp-772439,Li3AlFeO4,2.4242
mp-1029444,KCoN,0.0
mp-779752,Na5V2P(CO4)4,0.008499999999999952
mp-1029491,CsCoN,0.0
mp-773174,LiCr4O12,0.4543
mp-1095773,La2RuAu,0.0
mp-863674,ErMgHg2,0.0
mp-685137,Ce2SbO2,0.0
mp-866292,Ba2TlCd,0.0
mp-866013,DyTmMg2,0.0
mp-777706,Li10Mn2Fe3Co3O16,0.7412999999999998
mp-765044,Li14V9(P2O7)8,2.6486
mp-1024042,La4Al6O15,4.464499999999999
mp-1072011,HoCuPb,0.0
mp-2027,HfCo,0.019699999999999385
mp-569898,Ce3GaBr3,0.0
mp-861926,KGd2CuSe4,0.8559000000000001
mp-662551,TlNO3,0.0
mp-21136,Ce3Ni2B2N3,0.0
mp-13466,Sm(SiAu)2,0.0
mp-6732,La2MgIrO6,0.0
mp-625836,Sr(H2O3)2,3.034
mp-554111,Ti3Tl3(PO4)5,2.5328
mp-29575,Cs3Fe2Cl9,0.8946
mp-21340,HfGePt,0.0
mp-3618,Sc2FeSi2,0.0
mp-763507,LiCoGeO4,1.3635
mp-1099702,Sr2Ca6TiMn7O24,0.0
mp-675831,Bi2Pb3F12,4.4481
mp-3392,Ba(TlHg)2,0.0
mvc-9263,PrTi2O6,0.0
mp-1094242,Mg2Sn,0.0
mp-1026753,BaLaMg14,0.0
mp-756784,LiSbS2,0.0
mp-976856,NaMg3,0.0
mp-1077693,K5Na3Nb4(WO5)4,0.1311
mp-7068,Sr3(AlSi)2,0.0
mvc-10190,MgMn2O4,0.0
mp-554849,Ta4Mn11O21,2.2033
mp-1079815,PrSi2Rh,0.0
mp-777681,Li3VF6,2.5144
mp-557351,Bi(BO2)3,3.4257
mp-763145,Co2OF3,0.6714
mp-23057,CsLiBr2,4.1375
mp-773098,Li4Mn3VO8,0.8244000000000002
mp-24809,CaH2,0.7814000000000001
mp-781703,Fe2O3F,0.0
mp-1018115,PbS,1.3589000000000002
mp-30492,Na2CdSn,0.0
mp-775491,Li3Mn5(CoO6)2,0.058000000000000274
mp-646182,Mg5V2(MoO8)2,2.7858
mp-10428,Cu8SiSe6,0.4090000000000007
mvc-2283,Ca2Co9O13,0.0
mp-1013736,Ba3Bi2,0.0
mp-570405,TiHg6P4Cl7,0.03189999999999982
mp-23777,H8C3SN(OF)3,5.8094
mvc-4415,Ta2O5,2.7274000000000003
mp-776774,Li3FeF5,4.2166000000000015
mp-771854,Li4Cr5Co3O16,0.0472999999999999
mvc-928,BaCaV4O8,0.9838
mp-2538,Y5Si3,0.0
mp-1028014,Mg14ZnSn,0.0
mp-29088,Sr3(GeN)2,0.0
mp-542290,Nd2Mo4O15,2.5665
mp-755083,BaYCl5,4.5011
mp-765870,Li4Ni3O3F4,2.1682
mp-1097384,Hf2TcPd,0.0
mp-766103,Li7Zr3Nb(TeO6)4,2.3669
mp-571558,HgBr2,1.682
mp-10911,Sc2Al3Ru,0.0
mp-600004,SiO2,5.4296
mp-743889,NaCo2HSe2O7,2.7574999999999994
mp-31050,Cl2O7,3.6565
mp-567228,Na2PSe3,1.9240000000000002
mp-22413,FeCu2(CN)6,0.013899999999999912
mp-865159,Dy2AlZn,0.0
mp-22444,Ta4FeP,0.0
mp-565348,LiMnO2,1.2089000000000003
mp-979946,DyYCu2,0.0
mp-699378,Fe2NiO4,0.5483000000000002
mp-1020058,Mg(NO3)2,3.4662
mp-23984,GaH18C3(N3F2)3,4.975899999999998
mp-972051,YbGa2Pd,0.0
mp-768611,Ba3(YI6)2,2.3958
mvc-9268,CaPr(AgO3)2,0.0
mvc-14201,Ca3Sn2O7,2.9614
mp-27449,GaTeCl,2.1702
mp-777428,Na3NiO2,1.5896
mp-6215,AgHgAsS3,1.1980000000000004
mp-1035725,Mg14ZnCO16,1.1683000000000003
mp-1098674,CaMg30CoO32,0.0
mp-1094889,LiMg,0.0
mp-4200,ScPO4,4.5189
mp-32417,VP2O7,1.3102
mp-1016279,Mg7Zn,0.0
mp-699647,Mn2SnC9ClO9,2.325
mp-861597,Pr2Ni12As7,0.0
mp-1027410,Te2Mo2SeS,0.0
mp-1098355,Mg30TiBiO32,0.0
mp-774371,Li4Mn3F10,3.4539
mp-978538,SmSnPd2,0.0
mp-1080719,Sr2YTaO6,3.825
mp-735510,CrH10C2(NO4)2,1.7187
mp-777470,LiFeF3,3.4589999999999996
mp-863265,K2Mn(PSe3)2,0.7643
mp-765932,VF5,3.1961
mp-9588,LiP,1.0143999999999993
mp-985585,Li3ClO,4.6766000000000005
mp-1030722,Te2Mo3WSe6,0.0
mp-1018706,GdS2,0.0
mp-5556,U(SiRh)2,0.0
mp-775678,Li4Ti4Mn4CoO18,0.0
mp-1096466,Al2VIr,0.0
mp-771109,Li5Mn2Fe3O10,0.18659999999999988
mp-765460,LiCoPO4,2.7054
mp-1074338,Mg4Si3,0.0
mp-1093555,NaScTl2,0.0
mp-765258,Li4MnF8,1.0362
mvc-8826,CaTaTi(PO4)3,0.0
mp-24092,GdH2,0.0
mp-863667,Er2TlAg,0.0
mp-3018,Nd(MnSi)2,0.0
mp-864897,Zr2CuOs,0.0
mp-764283,VOF3,2.8799
mp-1033949,Mg14NbCrO16,0.0
mp-976982,Li2Mg,0.0
mp-774001,Li2Mn3CuO8,0.13439999999999985
mp-1026902,Mg14CuB,0.0
mp-1016319,Mg7Si,0.0
mp-8234,BaTe3,0.8122999999999996
mp-15503,Ba4TiAs4,1.036
mp-1014311,C3N,0.0
mp-1079438,Ta2N,0.0
mp-1028062,SrMg14Mn,0.0
mp-1094251,MgSn,0.0
mp-776053,Li2TiMn2O6,1.5566
mp-743949,Na3VSi4(HO6)2,2.2359000000000004
mp-753775,BaCaI4,2.7145
mp-1017507,TmAu,0.0
mp-976159,PrErIn2,0.0
mp-752579,Tm2TiO5,3.2759
mp-29477,C2S7Cl6,2.8703
mp-11503,MnZn,0.0671999999999997
mp-778542,Li32Ti3Cr13O48,0.9587
mp-30415,PrAu2,0.0
mp-777041,Li4Mn3Co3(SnO8)2,0.28880000000000017
mp-12091,Tl(FeS)2,0.0
mp-764841,LiVO2F,2.4218
mp-2025,HfBe5,0.0
mp-567107,EuHg2,0.0
mp-1035582,KMg14BO16,1.8494
mp-762414,Li3(FeO3)2,0.29700000000000004
mp-998969,TiH,0.0
mp-555225,Bi2Rh2O7,0.0
mvc-8888,TaTiZn(PO4)3,0.4513000000000002
mp-775763,AlBiO3,3.0461
mp-5372,RbFeS2,0.0
mvc-1072,CaCuP2O7,0.011099999999999888
mp-1017183,RbMg6Cr,0.0
mp-775726,Li2Ni3SbO8,0.2235000000000001
mp-11194,NdMgNi4,0.0
mp-699412,B3H52C16(NO)12,0.002000000000000224
mp-759419,LiSb(PO3)4,4.1158
mp-7874,LiGaGe,0.0
mp-23547,Ba7(ClF6)2,6.0478
mp-2451,YAl3,0.0
mp-773227,Li5Cr2Cu5O12,0.0
mp-766801,Li4MnF8,2.2371
mp-975404,RbCa3,0.0
mp-865221,Dy2IrPd,0.0
mp-22108,HoTiGe,0.0
mp-9571,Ca(ZnAs)2,0.3873000000000002
mp-721635,FeH20S2(NO7)2,4.122400000000002
mp-1020896,Rb4Ge3B6O17,3.8546
mp-971837,ZnCdTe2,0.7726000000000002
mp-1077557,Ce2MnN3,0.0
mp-1027891,KMg14Fe,0.0
mp-4406,CaSO4,5.9393
mp-765309,LiNi3O3F,2.1894
mp-850480,Li3CrCo3O8,0.0
mp-555087,Ba5Si(Cl3O2)2,4.5486
mp-1078899,LuNi,0.0
mp-720515,HN,4.3592
mp-530033,B8O,2.4459
mp-1099185,YMg14CO16,0.0
mvc-3004,SrCaCo(PO4)2,2.8546
mp-647427,Fe2Cu2Ge4O13,0.04260000000000018
mp-20314,NpSnIr,0.0019000000000009008
mp-581203,Mn2P2C12S(O2F3)4,3.0239000000000003
mp-29718,AgW3Br7,2.6908000000000003
mp-1600,BaHg11,0.0
mp-1028003,Mg14NbZn,0.0
mp-556281,Sc(PO3)3,5.0599
mp-764040,Li5Co5O9F,0.5529000000000002
mp-1080191,Pd3N2,0.0
mvc-3738,MgFeF5,3.7122
mp-1096747,ZnGeRh2,0.32509999999999994
mp-565665,Ba2V2ZnO8,3.4336
mvc-9724,Zn(SbO2)2,1.7036999999999995
mp-1037254,YMg30CrO32,0.12119999999999995
mp-41331,CaGa2Cu3(SbO6)2,0.8315000000000001
mp-557540,Rb2AgSbS4,1.4011000000000002
mp-12908,ScAgSe2,0.6802000000000001
mp-601265,SrH6(CO3)2,2.7834
mvc-9763,Bi2P2O9,0.0
mp-8235,K2SiP2,1.2073999999999998
mp-560104,LiTaGeO5,3.7864999999999993
mp-764246,WOF4,4.5049
mp-616218,Cd(In2I3)2,1.5345
mp-1080207,Li3Mn4O8,0.0
mp-19800,Fe11Si5,0.053300000000000125
mp-18451,KEr3F10,7.061
mp-698728,Ba2CaY(Co4O7)2,0.0
mp-1079214,GdSnPt2,0.0
mp-1094363,YMg,0.0
mp-1056996,VN,0.0
mp-8279,Ba(CdP)2,0.6829000000000001
mp-571057,KY(PSe3)2,1.8811
mp-686003,Ce4Y6O17,0.9173
mp-31473,K2Hg7,0.0
mp-1074619,Mg2Si,0.0
mp-549728,DyZnPO,1.2613999999999992
mp-510083,Tb2Ti3Si4,0.0
mvc-3929,Si3(MoO6)2,2.2688
mp-651154,Te4As2S5(OF6)2,0.0
mp-1099792,Ba3Sr5Ti8O20,0.0
mp-25668,Mo2P2O11,1.6407
mp-556207,ZnS,2.0323
mp-31817,Li2Fe(PO3)4,4.129199999999999
mp-774288,Li2V3CrO8,1.0848
mvc-9528,Al4Fe13Si2(SbO14)2,1.5073999999999996
mp-3477,MgAgAs,0.0
mp-30847,TiSnPt,0.7908
mp-1025472,NpTe3,0.0
mp-26531,LiCu2P3O10,0.03180000000000005
mp-504711,CoCuO2,0.0862999999999996
mp-1781,NdRu2,0.0
mp-554739,C3ICl(OF3)2,3.0782
mp-558950,AgAsO3,0.4985
mp-15812,Mn3Mo3C,0.0
mp-1029616,Ba(TaN2)2,2.6931
mp-765397,Li3V3O3F5,0.8613999999999997
mp-982773,Na3Tl,0.0
mp-762552,Li3NbNi3O8,0.2516000000000003
mp-770998,GdTa3O9,2.8865
mp-770565,TiCr(PO4)2,0.026200000000000227
mp-558624,Ba3LaRu2O9,0.0
mp-1026667,RbNaMg14,0.0
mp-860971,ErH(SO4)2,5.7570000000000014
mp-1079367,UAlCo,0.0
mp-673671,U11O5,0.0
mp-721988,NaAlSi3O8,4.9743
mp-4083,MgCuAs,0.0
mp-19161,Ca2CoWO6,2.0422
mp-698585,Sr24Ni19O54,0.4546000000000001
mp-32077,Mo2(PO4)3,1.0505
mp-28883,GeP2O7,3.8284
mp-1026854,CsKMg14,0.0
mp-29068,Hf5FeTe3,0.0
mp-16839,Na3WN3,1.7679
mp-675336,Pr10US16,0.0
mp-1097515,K2AgAu,2.013
mp-638558,Na10EuSn12,0.5328999999999997
mvc-2864,Ca2Ta2WO8,0.16239999999999988
mp-29462,NaGa3Te5,0.9918999999999998
mp-779650,Na5CuO4,0.0
mp-3613,NaErS2,2.3333
mp-17185,Ca4Si3Pd4,0.0
mp-776170,LiTi2O4,0.0
mp-31618,Li3Co2P5O16,3.1125000000000007
mp-863910,CoTe2O5,2.3711
mp-675010,CsHgCl3,2.0663
mp-540950,Ba3SrTa2O9,4.0225
mp-25067,LiInMo3O8,2.2212
mp-566404,BaMo4(PO8)2,2.0885
mp-1018803,MnCoSb,0.0
mp-35197,Sm(SbTe2)2,0.0
mp-561549,K2Be2(Si2O5)3,4.83
mp-771512,InFe29O40,0.3379000000000003
mp-556530,LaSc3(BO3)4,3.9049
mp-36235,Na(ScI3)2,0.0
mp-1028919,Te2MoWSeS,0.12670000000000006
mp-771653,Li6V3Ni(PO4)6,0.9740000000000002
mp-13907,CdSnF6,3.8504
mp-652425,LiFe6Ge5,0.0
mp-556212,K4U5Te2O21,1.7541
mp-1025395,HoTe3,0.0
mp-18700,K4SiO4,2.9391
mp-1016282,Mg7Mn,0.0
mp-7849,AlAsO4,4.2482
mp-773525,LiFe3O4,0.7842000000000002
mp-1072327,Sr2GdS3,0.0
mp-621667,Eu3Ag2,0.0
mp-763787,Fe8O9,1.4134000000000002
mvc-4351,Al2Cr3(SiO4)3,2.2963000000000005
mp-850070,MnOF,0.006500000000000172
mp-3587,Sc(SiNi)2,0.0
mp-769630,Li2Mn3F8,3.3809
mp-22503,ZrCo2Sn,0.07580000000000009
mp-778864,Li2Mn3(PO4)3,0.013500000000000073
mvc-8519,Si4SnO10,2.8506
mp-16342,HoGe,0.0
mp-1071320,Co2B,0.0
mp-865751,YbDyRh2,0.0
mvc-2834,Mg(SnO2)4,0.4555999999999996
mvc-3715,Ca3Ni2O7,0.006899999999999906
mp-19527,PrMo5O8,1.2378999999999998
mvc-8165,MgTiNiP2O9,2.9911
mp-763585,LiV(PO3)4,2.5341
mp-1096727,Ba2LiMg,0.04809999999999981
mp-541473,Sb(OF3)2,1.3814
mp-1014565,CrN2,0.0
mp-771388,MnP2O7,1.4175
mp-1099611,Sr4Ca4Co7CuO24,0.0
mp-778833,CoOF,0.0
mp-561569,CsSb2F7,4.1067
mp-12362,AgHg3SbO6,0.7092999999999998
mp-555150,KTa(BO3)2,3.6133
mp-516,LuSb,0.0
mp-559537,Ca4P6O19,5.3618000000000015
mvc-9821,ZnAg2P2O9,0.1725000000000001
mp-1014460,Cr3N4,0.0
mp-25511,CsCrH18N6(ClO2)4,3.9754
mp-849242,Li10Mn(SiO5)2,0.9875999999999998
mp-769346,Y2Ge2O7,3.7313
mp-783909,Li2MnSiO4,2.8791
mvc-2773,SrSn(PO4)2,2.11
mvc-14348,MgCrF4,3.3472
mp-708961,BeH8SeO8,3.9964
mp-715443,CoO2,0.9608
mp-975397,RbBa3,0.0
mp-601223,BN,0.0
mp-983459,HfZr,0.0
mp-859799,Li9Si2Ni5O16,0.5968999999999998
mp-542385,K2MnH4(SeO5)2,2.3487
mp-705336,Li2Co3(P2O7)2,2.7885
mp-1075810,Mg3Si2,0.0
mp-1026440,HfMg14Cd,0.0
mp-566720,Rb2Mn(PO3)4,4.559900000000002
mp-607004,CeAsSe,0.0
mp-765743,Li2CrFeO4,1.6024000000000005
mp-762535,Li2Fe2(SiO3)3,2.9576
mp-12754,ThPt,0.0
mp-571244,Nd10(B3C4)3,0.0
mp-504740,Eu(Al4Fe)2,0.042599999999999305
mp-765438,Li3Cr3CoO8,0.9782000000000002
mp-767823,Li3Fe2(PO5)2,0.0
mp-1077589,TaPS,0.0
mp-652092,Fe4Pb(CO)16,2.1198
mp-764077,Li3V3P8O29,1.0102
mp-699460,KLiH4S2(NO3)2,5.3356
mp-630476,HfVF6,3.2968
mp-1074483,Mg4Si3,0.0
mp-12076,Tm(FeB)2,0.0
mvc-9791,Al4V13Si2(SbO14)2,0.01989999999999981
mp-979414,WSCl4,1.965
mp-698685,V2Bi4O11,2.3001
mp-1095881,BaSrCd2,0.29779999999999984
mp-980429,Sm3Hg,0.0
mvc-2192,YFe4(CuO4)3,0.0
mp-619128,V6PbO11,0.0
mp-1024974,YSi2Ru3,0.0
mp-540118,MnPO4,0.8883
mp-861582,LiMnF3,3.7716
mvc-13146,HoV2O6,0.9714
mp-542942,ZnCdC4(SeN)4,3.0605
mp-25176,PbWO4,3.563
mp-1100555,Li9Mn7O16,0.5466000000000002
mp-1689,HfRe2,0.02629999999999999
mp-1026716,BaMg14Si,0.0
mp-676270,Cr2AsSe,0.0
mp-674953,Cu2GeTe3,0.0
mp-2767,TiGa,0.0
mp-1078081,K2CuF4,0.0
mp-864963,Dy2CuIr,0.0
mp-1096092,LiY2Hg,0.0
mp-765276,Li5Mn5CoO12,0.1109
mp-1093874,Cs2HgSe,0.8016000000000001
mp-865883,GdMgZn2,0.0
mp-30395,ScInAu2,0.0
mp-695202,Mg4Al9Cu(SiO4)9,1.9945000000000004
mp-1094105,Na4ZnSe3,1.6877
mp-1079055,LaCrAsO,0.0
mp-559737,Rb2Tb3AlF16,0.0
mp-677550,Ca5Al12Si12(AgO24)2,2.194
mp-1027155,Te2MoW3(SeS2)2,0.0
mp-5926,KCaF3,6.6469000000000005
mp-12689,Er2InPd2,0.01610000000000067
mp-758383,LiCu3(CO3)3,0.0
mp-1096637,SiTc2Ni,0.0
mp-744182,CrHSe3O8,0.2698999999999999
mp-778351,Li10Mn3F16,3.3565
mp-1094055,Sr3Ca(FeO3)4,0.0
mp-4227,BaVS3,0.0
mp-1019093,PaP2,0.0
mp-690575,Nb2NiO6,0.0
mp-1094663,MgGa2,0.0
mp-29884,ZnNi10P3,0.0
mp-1028959,TeMoWSe2S,0.0
mp-975394,RbBeO3,0.0
mp-1097859,Mn3Ge5,0.0
mp-1078460,Li2CuSn2,0.0
mp-775337,Li4Fe2Ni3Sn3O16,0.3281999999999998
mp-557044,Yb(ClO4)3,0.0
mp-695427,Na13Zr7Si5P7O48,3.7009
mp-771787,TiMn3O8,1.4123
mp-771725,LiNi3O4,0.0
mp-764267,LiV3OF11,1.5192
mp-623511,Sn,0.0
mp-1078762,RbCu4Se3,0.0
mp-1025210,Nd2Re2Si2C,0.0
mp-6504,BaMg(CO3)2,4.0848
mp-1080618,RuF3,0.0
mp-777980,LiCr2(PO4)3,0.2913000000000001
mp-558507,TbMn2BiO6,0.0
mp-631384,Sr2VW,0.0
mp-754262,Zn2As2O7,1.7632
mp-569607,Pr(GeRu)2,0.0
mp-1028136,RbMg14Mn,0.0
mp-1027309,TeMoWSe2S,0.0
mp-561277,K2PbO3,1.1332
mp-566939,P2W2O11,2.8508
mp-773979,Cr(SO4)2,0.0
mp-530933,Li5P2N5,3.4494
mp-698703,Li15Mn21O43,0.0
mp-777701,Li5Mn3Cu2(PO4)6,0.34830000000000005
mp-772593,Li2NiBiO4,0.0
mp-27465,S8O,2.4235
mp-124,Ag,0.0
mp-672344,CeAl5Pt3,0.0
mp-27473,Sb2TeF14,3.9651
mp-28416,Ce3Sn7,0.0
mp-1001834,HfN,0.0
mp-782702,Ni5O6,0.0
mp-1033729,HfMg14BO15,0.0940000000000003
mp-765318,LiVFeP2(HO5)2,1.5288000000000002
mp-776916,Fe3Ni2Sb(PO4)6,2.3559
mp-1030977,LaMg6BO8,0.21410000000000007
mp-1030615,Te4Mo3WSe4,0.1092000000000004
mp-622187,Li3VF6,2.029
mp-1097016,H4C7,2.2616
mp-764332,LiMn5O5F,0.0
mp-746662,NiH44C12(N5O8)2,3.1460000000000004
mp-1079300,BaZrSe3,0.038000000000000256
mp-1034441,Mg14CrSnO16,0.0
mp-779263,Li4Co3P4(H3O4)6,2.9627
mp-796076,VO2,0.8619000000000003
mp-18673,CsZnPO4,3.8806
mp-569292,ZrCuH8C2NCl6,2.0864000000000003
mp-6203,CaCuAs2O7,0.01930000000000032
mp-977165,Li3Co,0.0
mp-1026652,NaMg14Ga,0.0
mp-762193,Fe3Co2Sn(PO4)6,0.0
mp-21127,EuB2Rh3,0.012900000000000134
mvc-364,Sr2YAlV2O7,0.3193999999999999
mp-21510,K2NaInAs2,0.6218999999999997
mp-9655,Na4SnO4,2.0838
mp-774950,Li2V3CoO8,0.7871000000000001
mp-13376,SmZnRh,0.0
mp-866224,Be2NiPt,0.0
mvc-1239,ZnNiP2O7,3.867
mp-542931,Bi2B8O15,4.3762
mp-604910,MnSe,0.0
mp-12952,HfGaAu,0.0
mp-764932,Li3Fe4(BO3)4,1.6511
mp-30100,Li2B2Se5,1.6310999999999996
mp-766926,LiVF6,3.1403000000000003
mp-18142,Ca(Al5Cr)2,0.0
mp-647426,Cs2NpBr6,0.08689999999999998
mp-721753,CsH7(C2O5)2,3.2358
mp-12093,Ge,0.0
mp-976725,Hf3Au,0.0
mp-1002133,LaGa,0.0
mp-19150,BaVO3,0.0
mp-23435,Bi2TeI,0.005100000000000549
mp-758907,CrH18I7N6,1.4345
mp-12427,Sr2TaGaO6,4.0418
mp-504588,Cu2H2CO5,0.0
mp-770239,Ba2Ta2O7,2.9092
mp-13323,Ba2EuNbO6,0.0
mp-780724,LiSbP2O7,3.6412
mp-27606,ZrAs2,0.0
mp-1097708,Fe65(BN)6,0.0
mp-771816,Gd3NbO7,2.2513
mp-776721,Ti3V2Sb(PO4)6,0.028400000000000425
mp-768732,Ba6SrI14,3.0892
mp-26311,Li5Cu(PO4)2,1.9666
mp-647244,KNi4(PO4)3,3.6139
mp-1074327,Mg4Si3,0.0
mp-1036693,SrMg30SnO32,1.1266000000000007
mp-569157,BiI3,2.4854
mp-1026835,KMg14Bi,0.0
mp-24840,Sr2Co(ClO)2,0.5993000000000004
mp-647391,CeP5O14,3.6496
mp-18847,V2CdO4,0.0
mp-1033472,SrMg6CrO8,0.0
mvc-8970,LaTiZnFeO6,2.2913
mp-762883,LiCoSiO4,0.5109000000000004
mp-552176,Ba2PrNbO6,3.0923
mp-667349,Sr3U11O36,1.7103000000000002
mp-1027940,Mg14ZrV,0.0
mp-644330,H8C3N2O,1.7439
mp-24154,NbH2,0.0
mvc-12300,Y5Mn3(NiO6)3,0.0
mp-755104,Ba2YCl7,3.9884
mp-566983,NaLaMgWO6,3.1531
mp-1030758,RbNaMg6O7,0.2864
mp-976258,EuPtO3,0.0
mp-1097413,NaLaAg2,0.0
mp-680185,CsRe6Se8I3,1.1155
mp-29109,SiI3,2.8485
mp-753968,Li2WS4,1.6913
mp-558489,Ca6Hf19O44,4.130800000000002
mp-690536,Sr4Fe4O11,0.0
mp-767326,Li3NiPCO7,3.4922000000000004
mp-743794,Fe3H4(OF4)2,0.9575
mvc-5992,AsWO5,1.895
mp-1034788,Mg14CdSiO16,0.0
mp-707206,TeP6H30(NO4)6,3.6423
mp-40802,BaSrLaBiO6,1.8732
mp-667803,Nd2Cu2O5,0.0
mvc-10014,LaMnCrO6,0.4925999999999995
mp-1080374,CeSe2,0.9886999999999996
mp-1059189,Y,0.0
mp-1097653,CrGaRu2,0.0
mp-753477,Li3BiS3,0.9890000000000001
mp-5105,La(SiRu)2,0.0
mp-568570,CsSnI3,0.6174999999999997
mp-734150,Na3YH6(CO4)3,4.8889999999999985
mp-1008922,CuN,0.0
mp-773162,Li3Fe2SnO6,0.0
mp-1070152,Ca(CoSi)2,0.0
mp-1025,ThAu2,0.0
mvc-11541,FeO2,0.9529
mp-1075355,Mg3Si4,0.0
mp-567488,LiMnP2O7,1.3146999999999998
mp-510662,CsUAgSe3,0.0005999999999999339
mp-560417,SnO2,0.5726000000000004
mp-30731,HoSnPd2,0.0
mp-862945,NaPmTe2,0.0
mp-859133,LiH2N3O,3.6515
mvc-11840,V4(CuO4)3,0.0
mp-1096784,Ni(AsO2)2,2.7485000000000004
mp-1026628,RbMg14W,0.0
mp-568989,Li7NiN4,0.0
mp-982380,Li2Mg,0.0
mp-10899,AlVNi2,0.0
mp-510412,Si3Ru4,0.0
mp-777546,NaSnO,0.0
mp-1030704,Na15W7N19,1.6114000000000002
mp-999259,RuC,0.0
mp-861539,Li4Ni7(PO4)6,3.4320000000000004
mp-1019555,BaNaLi3(BO2)6,5.2185
mp-3281,Al5BO9,4.9356
mp-559691,Ca2Al2SiO7,4.2848000000000015
mp-772356,Li4V3Cr3(WO8)2,1.5726
mp-767552,Na3CaPCO7,4.2869
mp-27484,Tl2O,0.6999
mp-28315,Rb4CdBr6,3.1975
mp-28271,Sn5BF13,4.1558
mp-773198,Mn5Fe3O16,0.0
mp-25418,LiTiPCO7,2.8265
mp-557096,NiS2,0.0
mp-559558,Cu3P8(S2Cl)3,1.7878000000000005
mp-1009533,PdC,0.0
mp-722472,C6S3(N3Cl)2,0.501
mp-581805,Ni3Mo3N,0.0
mp-550498,Li4CO4,4.6576
mp-761447,Mn2Fe3P6WO24,2.4333
mp-981314,YbLuPd2,0.0
mp-2489,UC,0.0
mp-984744,Ca3Tl,0.0
mp-917542,USiO4,0.0
mp-556690,CsU6F25,0.01100000000000012
mp-558390,RbGa2P5O16,4.6502
mp-977372,Pm2SnHg,0.0
mp-866468,CrH9(BrN)3,1.5586
mp-976286,HoErRh2,0.0
mp-861874,LiHoHg2,0.0
mp-560708,SiO2,5.6266
mp-667383,SiO2,5.5086
mp-32396,LiNiP2O7,0.0060999999999999934
mp-18759,Mn3O4,0.6633
mp-569384,PrMgSi2,0.0
mp-23398,BClF6,3.3031
mp-1093750,ScAgAu2,0.0
mp-780876,Li6Fe(OF)3,2.7067
mp-1096560,HfZrRu2,0.04170000000000007
mp-557352,CaP2Xe5F22,2.7179
mp-763531,LiP3(WO6)2,2.5008000000000004
mp-1078995,Sr2MgTeO6,2.3278000000000003
mp-23668,H9C4NO4,3.2086
mp-571567,CdI2,2.4482
mp-28241,ZrI2,0.0963999999999996
mp-762970,Ba3V2P6(HO4)6,1.8233
mp-619196,NaCoPO4,2.7851000000000004
mp-1038013,BaCaMg30O32,3.0078
mp-861173,LiFeSiO4,1.7104
mp-1009833,TaN,0.0
mvc-4268,Ca3Ge3(BiO6)2,2.9773
mp-1024972,FeNiGe,0.0
mp-644506,NaAlH2CO5,4.9329
mp-1035738,Mg14ZnCO16,0.9351000000000004
mp-768056,LiMn10O20,0.0
mp-555436,S5N2(O2F)4,4.3178
mp-1094928,CeMg5,0.0
mp-570119,Yb7Au3,0.0
mp-1056059,O2,0.0
mp-19103,LiCrP2O7,2.7439999999999998
mp-815,GaNi3,0.12619999999999987
mp-1098698,Y2NiPt,0.0
mp-1009080,HoCd2,0.0
mp-27776,Cd2AsCl2,1.0820000000000003
mp-1016325,RbMg7,0.0
mp-1036772,Mg30VCrO32,1.9878
mp-16479,YbS2,0.0
mp-569756,TiCl3,0.02300000000000013
mp-695887,K3Cu2P4HO14,0.32510000000000017
mp-556095,Dy3S4,0.0
mvc-3446,CaVF4,2.6739
mp-7151,CsUCuSe3,0.0
mp-851269,V4Cr2O13,2.3222
mp-1076063,Sm2Co2O5,0.7309999999999999
mp-20793,Ga2FeS4,0.3544999999999998
mp-1038660,Mg30NbCrO32,9.999999999976694e-05
mvc-3784,AlWO3,0.4683999999999999
mp-4585,Pr6Fe13Au,0.0011999999999998678
mp-7077,KAuS,2.191
mp-975904,Li3Cd,0.0
mp-28667,Ta(NiTe)2,0.0
mp-501,TaSe2,0.0
mvc-5060,Ca2TeWO6,0.4415000000000005
mp-775168,MnCu3(PO4)4,0.0
mp-768208,Li3SbS4,1.4459
mp-14222,TlGaO2,2.1553
mp-1009834,Al2Ru,0.0
mp-32761,SiO,0.0
mvc-10568,CaMn4O9,0.0
mp-769471,Fe3Co2P6WO24,0.0
mp-770527,Li2Mn4O9,0.2549999999999999
mp-530925,Fe6Ni9S20,0.0032000000000005357
mp-765240,Li3VOF6,3.1774
mp-1652,ZnPd,0.0
mp-29633,LiGePd2,0.0
mp-686671,CeBeSiHO5,0.1875
mp-29983,Cs6Cl4O,1.984
mp-31550,Co(PO3)4,0.3957999999999999
mvc-448,Sr2YV2O7,0.0
mp-690644,TlInS2,0.0
mp-570960,HfOs2,0.0
mp-655297,K2PdN2(ClO2)2,1.727
mp-755505,Li2NbOF5,3.8938
mp-1096746,Li2ScTl,0.0
mp-601842,Fe9Co7,0.0
mp-12490,CsHoCdTe3,1.5502000000000002
mp-662607,CeP4(ClO)13,3.175
mp-585516,Ca3Si2O7,4.6202000000000005
mp-554005,KGdCO3F2,2.7183
mp-775729,Li4V3CrO8,0.9862000000000002
mp-565805,TbFe3(BO3)4,2.3623
mp-9556,SrZnSi,0.0
mp-21006,Ce(NiAs)2,0.000600000000000378
mp-771591,Mn(IO3)2,2.6730000000000005
mp-631544,BaSiB,0.0
mp-765122,LiVF6,3.1525
mp-1095213,BaFe2S2O,1.8979000000000004
mp-1022038,Mg6CdCo,0.0
mp-850265,LiMnP2O7,0.4399
mp-977218,Li2Mg,0.0
mp-510249,BaV13O18,0.15640000000000054
mp-3589,BPO4,7.2565
mp-768247,PtO3,0.0
mp-654008,K3Cr11S18,0.3485000000000005
mp-777883,Ba6YCl15,4.6917
mvc-7303,Mg(SnO2)2,1.4177999999999995
mp-780086,Li8Mn(O2F)2,2.6208
mp-1009540,OsC,0.14530000000000065
mp-1058171,NaS,0.0
mp-768348,Sm(ClO4)3,5.6722
mp-1026692,RbNaMg14,0.0
mp-765795,Li2Cr3CuO8,0.0
mp-638261,La2GeO5,4.015499999999999
mp-770310,Li5Mn2P2(CO7)2,0.0
mvc-15792,CaCuF5,0.0
mp-561055,RbB3O5,5.6999
mp-771092,Li6Mn3Cr(PO4)6,0.6678
mp-770824,Nb2P4H3O16,0.0
mp-976334,Li3Tc,0.0
mp-7367,Ca(GaO2)2,2.9876
mp-772063,BaLaCl5,4.2395000000000005
mp-567083,K2SrV3O9,2.1927000000000003
mvc-11011,Al(CoO2)2,0.13090000000000046
mvc-14237,CaCoWO6,0.4639
mp-23742,CsB5(H2O3)4,5.6249
mp-1022119,Mg6CuC,0.0
mp-1094697,Mg2Cd,0.0
mp-510322,UCo5,0.013300000000000093
mp-1007918,DyAu,0.0
mp-25471,Li(CoO2)2,0.0
mp-1035135,LiMg14CO16,0.0
mp-776691,Li3VF5,2.7168
mp-762178,Li4V3P8O29,0.7502000000000001
mp-1080193,MoN2,0.0
mp-561753,Sr2CoReO6,0.0
mp-561543,BeF2,7.9632
mp-773965,Nb2PbO6,1.9288
mp-25780,Zr4Ni2O,0.007500000000000284
mp-1016111,MnHO2,1.3787999999999998
mp-13073,PrNiGe3,0.0
mp-1099148,YMg14CoO16,0.2705000000000002
mp-18262,HoAgS2,1.7807999999999995
mp-780129,Fe2OF3,1.4514999999999998
mvc-9603,Mg(SbO2)2,0.5551000000000004
mp-771309,Eu2Y2O5,0.0
mp-7557,Nb5SiSn2,0.0
mp-865562,Be3Ru,0.0
mp-531590,SrAl22O34,4.4761
mp-556258,Na3BeAl(SiO4)2,4.3245
mp-9442,Dy3Fe2Si3,0.0
mp-569593,PmMg,0.0
mp-1097224,Cd2InBi,0.0
mp-14416,Sm2Be2GeO7,4.6776