mpid,formula,gap pbe
mp-36711,Na(Sm2Se3)4,0.0
mp-733,GeO2,3.2501
mp-1078607,BiSe,0.0
mp-752398,BaCuO2,0.0
mp-741677,SnCl8O25,0.012399999999999968
mp-1025013,GdCu4Pd,0.0
mp-773564,LiMnF4,1.2137
mp-22235,Cs2MnSnTe4,0.6923000000000004
mp-20518,Lu4CoB13,0.0
mp-773708,LiMnPO4,3.4749
mp-566968,Yb2MoO6,0.0
mp-680115,CdI2,2.3587
mp-17017,Al12Co4Cu,0.0
mp-31031,La4PdO7,0.3863000000000003
mvc-16279,Y(FeO2)3,1.1700000000000004
mp-1032382,NaMg6FeO8,1.0379999999999994
mp-579927,Na2YbMoPO8,0.0
mp-758270,Li3Ti(PO4)2,0.21030000000000013
mp-569564,Th2Al2C3,0.0
mp-1079149,Ba2ZnSb2,0.4421999999999997
mp-756886,Eu3NbO7,0.0
mp-15639,HgRhF6,0.0
mp-707294,ZnP2H15C5NO9,4.7839
mp-1095543,LiBH4,5.4652
mp-775715,Li4V3Co3(SnO8)2,0.6893000000000002
mp-21451,Ba2SmCu3O7,0.0
mp-20700,Gd(SiIr)2,0.0
mp-1073780,MgSi,0.0
mp-865578,LiNd2Ga,0.0
mp-861293,Li8Ni(O2F)2,3.012
mp-570451,Nb2Te3,0.0
mp-569274,Ce10(B3C4)3,0.0
mp-1030826,SrMg6SiO8,0.13400000000000034
mp-558697,Rb3U2Ge2O11,0.03740000000000032
mp-1096156,AlV2W,0.0
mp-540572,NCl3,2.1636
mp-604429,NaFe3H6(SO7)2,1.9074
mp-1073586,MgSi2,0.0
mp-780039,Na2FePCO7,2.4651
mp-776919,Ti3Fe2Te(PO4)6,0.033999999999999815
mp-10869,S,0.0
mp-29866,SnCl4,3.551
mp-569702,KPSe3,1.41
mp-1093707,TiVOs2,0.0
mvc-10209,HoMg(CoO3)2,0.0
mvc-3416,ZnBiF5,4.36
mp-867500,PuI2,0.24209999999999976
mp-757967,LiSn4P7O24,0.3184
mp-562920,CsAl(SiO3)2,4.7668
mp-1027802,Mo3W(Se3S)2,0.8835000000000002
mp-600348,LiCoH24C8(N2O3)4,2.6831
mp-773887,TiBi2O5,2.5742000000000003
mp-775686,Li4Fe3Ni3(SnO8)2,0.0
mp-505187,K6Pb2O5,2.1249
mp-23151,Na4BeAlSi4ClO12,4.6318
mp-745015,K3Fe3P4H2O17,2.2497
mp-685833,Sc14Cu14O37,0.0
mp-705369,LiCo6P7O24,0.0
mp-625295,VHO3,2.1038
mp-769907,Li4NbNi3O8,0.0
mp-1078336,NaCoF3,2.9647
mp-765953,Li2MnO2F,0.0
mp-25082,Mo(CO)6,3.3073
mp-581963,K4Hf3Te17,0.9113000000000002
mp-1097028,GdAgSe2,0.9639000000000002
mvc-1112,Ba2Co3O8,0.0
mp-558598,SiO2,0.0
mp-89,Cr,0.0
mp-571506,TmAlSi,0.0
mp-754141,Ce3TaO7,0.0
mp-676694,LiNbO3,2.9835000000000003
mp-1080848,KVN2,0.8387
mp-1018138,VI2,1.0495999999999994
mp-31069,P2Pb8O13,2.0642
mp-22958,KBrO3,3.8455
mp-1246,Fe4C,0.0
mp-761019,Hf2N2O,2.1159
mp-687200,LiFe(PO3)5,0.0036000000000000476
mvc-763,Ba2AlCu3O8,0.0
mp-1017550,Be3N2,4.246
mp-561533,SbOF,3.3227
mp-31108,Pr12InPt7,0.0
mp-18585,RbAgSe4,1.1614000000000002
mp-28051,SbTeI,0.8605999999999998
mp-618999,Pr4NiI5,0.0
mp-861243,Cs2SnO3,2.386
mp-7472,RbAuO2,1.4611
mp-757574,Ba8In8O19,1.3122000000000005
mp-1029219,Te2MoW3(Se2S)2,0.0
mp-771603,Mn5Te3O16,0.0
mp-1076338,La3SmV3CrO12,0.8831999999999995
mp-25783,NiH4SeO5,3.8848
mp-5869,Ca2CuO3,0.0
mp-28134,Ba2As2S5,1.3668
mp-562607,AlPO4,0.0
mp-1096264,ZrCu2Ag,0.0
mp-640353,Cs(BI)6,1.7666000000000002
mp-565403,Ti2Fe(PO5)2,2.2059999999999995
mp-626083,Si2H2O5,5.274100000000002
mp-19774,Eu(CdSb)2,0.07230000000000025
mp-1026447,Mg14CdGa,0.0
mp-5928,Al2CdS4,2.7263
mp-22377,ZrCoSb,0.0
mp-623035,FeSbPt,0.0
mp-1033806,Mg14NbCO16,0.0
mp-505698,SmH18(IO3)3,4.1273
mp-569220,ErRu2,0.0
mp-4593,Mn3AlC,0.04430000000000067
mp-22930,Rb4CdCl6,3.9341
mp-782638,Fe3(O2F)2,0.0
mp-867913,LiHo2Ir,0.0
mvc-9686,Ba2AlCo2F11,3.0809
mvc-10465,MgFe2(CuO4)2,0.0
mp-764082,V3OF11,2.2065
mp-2014,DyP,0.0
mp-777065,NaMnPCO7,0.9334
mvc-9144,MgCrBiO5,0.6785999999999999
mp-760747,Ti11O18,0.0
mp-612175,Eu3(AsPd)4,0.0
mp-510605,Gd2Zr2O7,0.2277
mp-5974,La2Si2O7,4.651299999999999
mp-697136,Be(HO)2,5.4038
mp-761483,Li3Fe(PO4)2,2.4045
mp-557427,K2CoF4,0.0
mp-862805,PrSnAu2,0.0
mp-14338,Cs2Pt3Se4,1.3432
mp-1019279,SrZnSn,0.0
mvc-6184,Sn3(AsO4)4,0.5682999999999998
mp-557071,KBi6ClO9,2.3531000000000004
mp-17171,LaF3,4.9435
mp-669354,LaNb2CuClO7,0.0
mp-699535,MoSCl7O,1.8305
mvc-11628,MgCr2O4,0.7034000000000002
mp-17357,NaSmSiO4,4.2409
mp-759211,La2H22S6N6O23,4.3906
mp-1096111,ScMnAu2,0.0
mp-1040196,KMg30BO32,4.2959
mp-35975,Li2MoO3,1.5972999999999995
mp-755804,Lu6TeO12,2.8127000000000004
mp-982007,YTmCu2,0.0
mp-1021405,LiMg6Mo,0.0
mp-867212,TcOs3,0.0
mp-567826,Sr,0.0
mp-608621,Nb2NiO6,2.9865
mp-27608,Be4TeO7,1.4620000000000002
mp-9258,SiO2,4.4518
mp-761729,Li2VCo3O8,1.0345
mp-752434,Gd3YO6,3.1017
mp-2245,Si3N4,4.654700000000001
mp-862257,Sc2ZnAu,0.0
mp-1019586,CaAl2SiO6,4.5200000000000005
mp-570838,CdHg4(AsI2)2,0.4599000000000001
mp-1028488,WSeS,0.7584
mp-631320,TcIrOs,0.0
mp-1079128,CrBi,0.0
mp-669525,Sb3Pd8,0.0
mp-10905,Al3Pt2,0.1360999999999999
mp-559554,Li2TeO3,3.9576
mp-761386,LiCrPO4,1.7955
mp-19015,VCrMoO7,2.4206
mp-1079494,ReC,0.0
mp-28813,Si3CCl8,4.5168
mp-1097263,Cs2RbNa,0.07000000000000027
mp-1095930,AlSiTc2,0.0
mp-989623,SrReN3,1.9969
mp-561099,Ba4Os6ClO18,0.0
mp-568700,Na5LiN2,0.8422999999999998
mp-744924,Na2TiCr(PO4)3,2.5205
mp-780588,Li3MnCr3O8,0.5042
mp-1073877,Mg6Si5,0.0
mp-764424,Li3V2(O2F)2,0.9366
mp-540427,V(PO3)4,1.5689
mp-862319,Ac2CdSn,0.0
mp-997530,Li2FeCu(PO4)2,0.10030000000000028
mp-1016235,CaMg3,0.0
mp-1017272,HfMg6B,0.0
mp-542769,Sn(CO2)2,2.6084
mp-865536,YbZrRh2,0.0
mvc-14983,ZnCu4(SnSe4)2,0.0
mp-776722,LiFe2OF5,2.1765
mp-865885,CeAgHg2,0.0
mp-982596,TbSc,0.0
mp-1035635,Mg14CoCuO16,0.0
mp-24128,ReH4NO4,4.0859000000000005
mp-6775,Na3Sr(BO2)5,4.561
mp-573324,CsK2Ho(PO4)2,4.8777
mp-675449,Pt4(O3F8)3,0.010200000000000207
mp-1080076,Sr2NO6,0.16259999999999994
mp-867259,RhCl2,0.0
mp-1062984,ThCo2,0.0
mp-505775,V13O16,0.011299999999999866
mp-22532,TbTiSi,0.011299999999999422
mp-1099824,Ba7Sr(CuO3)8,0.0
mp-641703,Li7P3S11,2.4142
mp-770559,Dy2WO6,3.623
mp-973088,MgInAg2,0.0
mp-1098920,Mg30CrCoO32,0.3605999999999998
mp-1097288,Sc2PtRh,0.0
mp-685427,Hg15(As2Cl3)4,1.3226
mp-972784,SiTc3,0.0
mp-19184,VO,1.1025
mp-1018116,NbInSe2,0.0
mp-865351,Tm2ZnRu,0.0
mp-11227,Al12W,0.0
mp-510228,V2Te2O9,2.2207
mp-15141,NaZr2ZnF11,5.7288
mp-20663,TmCuPb,0.0
mp-685513,Pr6MnS10,1.2101999999999995
mp-978986,Sr(GePd)2,0.0
mp-772198,Be(Bi3O5)4,0.0
mp-1079171,NdNiGe3,0.0
mp-1078600,TmAgTe2,0.9387
mp-975065,Re,0.0
mp-763913,Li7Co(OF)3,2.4040000000000004
mp-695895,K4Ba2N7O16,0.3796
mp-705355,Li2Mn(PO3)5,1.5914
mp-18505,CsHo3Te5,1.1293999999999995
mp-851021,Mn7P12WO48,0.0
mvc-15448,YNiO3,0.0
mvc-14048,Mg(VS2)2,0.0
mvc-16093,Al2BiSe4,2.2379
mp-651231,Te2Ru4(CO)11,1.7386
mp-541330,Sr2SmGaCu2O7,0.0
mp-27549,K2AgBi,0.9846
mp-982872,Hg,0.0
mp-12857,Mn3N2,0.0
mp-763863,Li4Mn3Nb3(SnO8)2,0.0
mp-667308,Cs3(FeS2)2,0.0
mp-1039467,Ca2Mg,0.0
mvc-10084,Ti4ZnO9,2.7184
mp-29025,Li5Br2N,2.0781
mp-23443,MnTlI3,1.4226999999999994
mvc-5889,IrWO6,0.0
mp-982004,SmInPd,0.0
mp-568991,Hf2Al4C5,0.0
mp-761479,CoH8(IO5)2,2.9021
mp-540248,LiNiPO4,3.5415
mp-1073716,MgSi,0.0
mvc-8667,ZnCr(Si2O5)2,3.2562
mp-1035261,Mg14CdCuO16,0.0
mp-5391,Mg2SiO4,4.497299999999999
mp-20865,YCuPb,0.0
mp-1077830,Pr2GeRh3,0.0
mp-1096287,Tc2GeMo,0.0
mp-14858,Rb4Tc6S13,1.0044999999999995
mp-20523,HfNiSn,0.0
mp-1035557,RbMg14FeO16,0.0
mp-762821,Li3Ti3VO8,0.0
mp-720461,P3H22C3N9O11,4.9847
mp-600072,SiO2,5.8422
mp-8969,Mg2Ni3P,0.0
mp-554284,Na5Fe3F14,3.2762
mp-764899,Li2FeOF3,2.3292
mp-765251,Li4V3P8O29,0.7426
mp-540446,Cr5(PO4)4,1.4408000000000003
mp-676333,Ga11NO15,1.5736999999999997
mp-21879,Ba2CePtO6,1.4204
mp-637209,AsN9,3.1608
mp-1038340,Mg30AlCoO32,1.3619000000000003
mp-567243,Tm(CrSi)2,0.0
mvc-6291,Ca2YSnO5,2.4817
mp-1078557,PrPt,0.0
mp-626337,Sr(H8O5)2,3.5641
mp-704189,CoPO4,1.2388
mp-2731,TiGa3,0.0
mp-645593,Ca3ScCoO6,2.5875
mp-768963,SrLaCl5,3.3475
mp-1009733,Ca2Si,0.5549
mp-554195,Sb3As2S14(IF8)3,1.8039
mp-759722,SiH8(NF3)2,6.464599999999999
mp-977446,NdVGe3,0.0
mp-1099803,SmVO3,0.0
mp-5547,Mg2B2O5,5.0851
mvc-11649,Ca(CoO2)2,1.6067999999999998
mp-769697,Co2HgO4,0.0
mp-571664,Zr2Rh,0.0
mp-19256,Er2Mn2O7,1.0707
mp-4192,Ca3AsN,0.8940000000000001
mp-1073065,Mg2Si3,0.0
mp-778251,Li4TiCo2Ni3(PO4)6,2.3268
mp-6933,MnN,0.0
mp-761352,LiMnSiO4,0.9032
mp-18778,Zr(WO4)2,3.6052
mp-1078508,HoTe3,0.0
mp-12640,Ba2DyNbO6,2.8514
mvc-8117,MgSb2O5,0.0
mp-756354,SrSc2O4,2.7653
mp-648893,Na4V2O7,3.3849
mp-771205,Li5Nb2Co3O10,0.8350999999999997
mp-698721,MnV2P2(H4O7)2,1.7461
mp-704467,Rb2U2WO10,1.8962
mp-677406,CuH12N2(Cl2O)2,0.5761
mp-1032692,Mg6MnCO8,0.0
mp-769232,Dy2(SeO4)3,3.7761
mp-1096701,Ga2CoIr,0.0
mp-971754,V2ReW,0.0
mp-558954,Na2Sr2Al2PO4F9,5.8328
mp-1100246,BaSr7Ti5Mn3O20,0.0
mp-738707,SiPH18C6INCl,2.7535
mp-638051,LuNiGe2,0.0
mp-758103,YH2(CO3)2,3.4584
mp-763284,FeOF,0.0
mp-626644,Ca(HO)2,4.2274
mp-1022032,Mg6CoBi,0.0
mp-1077935,V2CoS4,0.0
mp-1079246,ZrGaCo,0.0
mp-557224,HgSeO3,2.5934
mp-1039136,MgCd,0.0
mp-541122,MnFeH4O2F5,1.9609999999999999
mp-3494,CeGa3Pd2,0.0
mp-757084,Rb3SbO3,2.7821
mp-568046,Y5Mg13Cu5,0.0
mp-540585,BaGa2(GeO4)2,3.4836
mvc-15176,CaLa2BiO6,0.0
mp-762820,LiV2(SiO4)2,0.9173
mp-769522,Li13Mg(Ni6O13)2,0.0
mp-28500,UTe5,0.009500000000000064
mp-1095865,Ti2FeRh,0.0
mp-1078602,ZrIn3,0.0
mp-1260,SrPd5,0.0
mp-760007,Hf3N2O3,3.2891000000000004
mp-608408,Ba2GdSbO6,0.0
mp-21490,CeSnPd,0.002299999999999969
mvc-3027,Ba2Ca2Tl2Fe3O10,0.0
mp-557926,CdAs2(XeF5)4,2.3694
mp-4530,Cd2SiO4,1.7277
mp-570348,SnH20C6(NCl3)2,2.9572000000000003
mvc-15840,CaFeF6,0.0
mp-18008,Ba2HgS3,1.3556
mp-1079106,TiFeH2,0.0
mp-1076449,SrCa7Mn7FeO20,0.0
mp-1097399,LiInHg2,0.03929999999999989
mp-3704,Cs2Mn3Se4,0.4996999999999998
mp-1073638,MgSi2,0.0
mp-557826,Li3U7(PO7)5,1.925
mp-865386,GdGa3,0.0
mp-2072,KTe,0.6627000000000001
mvc-16041,Ca3(TiS2)4,0.0
mp-972981,K,0.0
mp-505149,CsCr5Se8,0.0020999999999999908
mp-570168,Rb2ZnBr4,3.6395
mp-772524,LiTi2(PO4)3,2.7608
mp-1027854,Mg14ZrGa,0.0
mp-705042,Co3C10O9,1.6855
mp-23034,SrZnCl4,4.298
mp-1013849,Li3Fe2(GeO4)3,0.0
mp-16043,Mg(As2Rh3)2,0.0
mp-580161,Na3InBi2,0.06889999999999974
mp-30207,La3GaBr3,0.0
mp-555199,TlHgAsS3,1.5811000000000002
mp-767091,LiNbSn3(PO4)6,2.7647
mvc-12665,ZnFeO2,0.8465000000000003
mp-1027358,TeMoS,0.28679999999999994
mp-861893,Li2LaPb,0.0
mp-862666,DyGaRh2,0.0
mp-615578,NdVO3,0.03169999999999984
mp-779898,Na6NiO4,1.2905999999999995
mp-867769,ScZnRh2,0.0
mp-15487,Ag6Ge2O7,0.009700000000000042
mp-554497,CuSb2(XeF5)4,0.6642999999999999
mp-763124,Fe4OF7,1.6849
mp-1094114,MnCoP,0.0
mp-1076606,KNaMo2O5,0.4452999999999996
mp-1093758,MgZn2Ir,0.0
mp-10837,Na2MgInF7,4.9737
mp-565583,Gd3BWO9,3.1839000000000004
mp-767316,Li3MnPCO7,3.5059
mp-530514,Li17Nb18O54,3.3221
mp-567809,AgI,1.596
mp-14638,Rb2LiGaF6,6.1124
mp-765110,LiVFe(P2O7)2,1.6782
mp-28928,DySBr,2.8776
mp-570203,MnCoSb,0.0
mvc-15861,MgWF6,3.7460000000000004
mp-1022068,Mg6CoSn,0.0
mvc-15869,ZnAgF5,0.0
mp-647366,KICl4,2.2151
mp-20666,SmIn2Rh,0.0
mp-1027965,YMg14Ga,0.0
mp-1009734,RhN,0.0
mp-24891,BaLu2CoO5,1.9953000000000003
mp-765419,Li6V5O12,0.6962000000000002
mp-1069379,GdCoSi3,0.0
mp-756224,TbGdO3,3.0933
mp-9517,SrTiN2,0.7925999999999997
mp-975887,PrNd3,0.0
mp-559204,H3CS,3.5897
mp-774848,H10SeO8,3.9706
mp-16223,TlTe,0.0
mp-541667,Nb(SeBr)2,0.9901
mvc-1037,BaV4O8,0.0
mp-1020647,Sr2LiBeB3O8,4.7198
mp-643306,HPbCSNO,3.4588
mp-1031857,BaCaMg6O8,0.2402999999999995
mp-571471,NbCoTe2,0.0
mp-764986,Li4Ni3O6F,0.0
mp-21308,TbInPd,0.0
mp-866660,K3P2AuSe8,1.2085
mp-32407,TaVO5,2.1719999999999997
mp-1074616,Mg2Si,0.0
mp-15056,NaZr2TiF11,0.019200000000000102
mp-8153,NaHgPO4,1.4380000000000002
mp-765114,Li2Fe(CO3)2,3.4821
mp-775122,LiLaNb4O12,1.2726
mp-763903,V3OF11,1.9343
mp-1014324,C3N,0.0
mp-3907,Er(SiIr)2,0.0
mp-541901,KH18OsN6(ClO2)4,3.0483
mp-707511,KErP4(H2O9)2,0.27929999999999994
mvc-4843,Mg(WO2)2,1.1872000000000005
mvc-3002,Ba2AlTlV2O7,0.0
mp-14012,Cu3P,0.0
mp-770577,LiAlFeO3,2.244
mp-570477,LaSmI4,0.0
mp-771910,Ti2Mn3Co3O16,0.0
mp-849479,Mn6O7F5,0.0
mp-984315,Be3Ni,0.0
mp-1080460,Mo(BrO)2,1.4603
mp-30612,Er7Rh3,0.0
mp-16870,Ba2CdSe3,1.5746
mvc-4607,Mo2O5,1.8672
mp-22268,ZrPRu,0.0
mp-10117,Mg3(Ni10B3)2,0.0
mp-1018817,NdSe2,0.0
mp-753054,KI(OF)2,3.7254
mp-1033692,HfMg14CdO16,0.0
mp-865152,MgAlPd2,0.0
mp-863942,Sr2MnZn2(AsO)2,0.0
mp-558569,SiO2,5.6388
mp-1074467,Mg4Si3,0.0
mp-777719,LiV4O5F7,1.2058
mp-569881,Sr(NiSb)2,0.0
mp-631277,SrCrW2,0.0
mp-542461,Se,1.5703
mp-2672,K2O2,2.3447
mp-1003856,MgMnO2,1.7128999999999994
mp-776805,Li4Mn3Cr3(SnO8)2,0.0
mp-542121,Rb4Nb2Si8O23,3.7154
mp-1021158,SrLaMg6,0.0
mp-867287,LiInAu2,0.0
mp-697756,Fe(PO3)3,2.0457
mp-773171,TiMn(PO4)2,1.0124
mp-769858,Li4Mn3V2Cu3O16,0.0
mp-705398,LiFeP4O13,0.0
mp-4574,YbTaO4,0.0
mp-23406,Cs2PtCl6,2.1024
mp-677010,YbTi2CdO6F,0.0
mp-704101,Mn4C15S4O15,1.9026
mp-558645,PBr3O,3.0735
mp-766744,Li2Fe2Si4O11,3.5044
mp-558203,SiO2,5.8698
mvc-5377,MgAgAsO5,0.6999000000000001
mp-774883,LiFe3(SnS4)2,0.0
mp-10093,Sr2YbNbO6,0.0056999999999998155
mp-978921,Tb(BIr)4,0.0
mp-540672,Ti7Br16,0.0
mp-20410,Ho(BC)2,0.0
mp-1080857,CeSe2,0.9303
mp-560328,Ag15P4S16Cl3,1.2258
mp-675192,Ce3Dy2O9,1.8936
mp-772755,Li3CuPCO7,0.15739999999999998
mp-850374,Li4Mn3Fe(BO3)4,2.9713
mp-1029811,Y4Te3N2,1.1482
mp-600494,CoHCO3,1.8963
mp-18828,TlFeO2,1.0500000000000005
mp-1035127,Mg14TiCoO16,0.0
mp-1034856,LaMg14BO16,0.5105000000000004
mp-30777,MgPt3,0.0
mp-757159,LiSiBiO4,3.1885000000000003
mp-1036505,SrMg14AlO16,0.0
mp-1080163,Mo3W(SeS)4,0.9663999999999996
mvc-14214,ZnCrF5,2.8762
mp-707052,CuH12Se(NO)4,0.6238999999999999
mp-1024985,ErAlGe,0.0
mp-780235,LiSn2(PO4)3,3.5521000000000003
mp-25662,Fe(SeO3)2,0.007500000000000007
mp-5936,La(SiRh)2,0.0
mp-28599,Na4Br2O,1.9831
mp-865656,TiMn2W,0.0
mp-1098944,BaMg30NiO32,3.7166
mp-8753,K4HgP2,0.9356
mp-25689,FeBPbO4,2.2443
mp-16905,Ba2MnTe3,0.8777999999999997
mp-1023489,Mg15Cd,0.0
mp-693358,Ca6Ti5AlSi6O29F,2.4854000000000003
mp-1093846,HfGaCu2,0.0
mp-971758,ZnNi3,0.0
mp-17282,SrTh2Se5,1.4103000000000003
mp-20618,Y2Co3Si5,0.0
mvc-3731,CaCrF5,2.9997
mp-30592,CuNi2Sn,0.0
mp-26855,Li2Sn(PO3)4,3.9056
mp-754406,Li2CuPO4,1.1851000000000005
mvc-3952,Mg2Ni2O5,0.0
mp-765552,Li2MnCoO4,0.4936000000000002
mvc-13829,Mg2FeSbO6,1.9207
mp-1096026,Ca2ZnSn,0.003899999999999793
mp-1094588,LiMg5,0.0
mp-23194,LaI2,0.0
mp-560538,Na3AlS3,2.91
mp-762429,LiV2(CO3)4,0.5413000000000001
mp-15956,YBC,0.0
mp-1487,AlNi,0.0
mp-766868,CrCoO4,1.5962
mp-571097,SiH17C11N,3.9636
mp-995282,LiAlB4,0.0
mp-568333,K2SnBr6,1.1709
mp-9737,Ba4Sm4Zn3PtO15,2.3851
mp-763071,Li4Fe3Co5O16,0.0
mp-771158,Ba2B2O5,3.9978
mp-764005,Li4TiV3O8,0.5875000000000004
mp-1021423,KMg6Ti,0.0
mp-1079839,Ba2GdMoO6,0.9749
mp-542983,MnPbO3,0.03830000000000045
mp-771292,Li2FePCO7,2.1595
mp-1028004,SrMg14Zn,0.0
mvc-10231,HoV2ZnO6,1.0043999999999995
mp-767945,Mg7Co17O32,0.0
mp-20474,MnCu2GeS4,0.012800000000000368
mp-864674,Ho2AlZn,0.0
mp-2051,LaCu2,0.0
mp-754144,BaYI5,2.7161
mp-28867,Ba7Ir6O19,0.003300000000000303
mp-759603,H9CN5Cl2,4.702999999999999
mp-28269,Cs2SbBr6,0.0
mp-762287,Li2V5O10,0.6202000000000001
mp-779930,Fe3(OF2)2,1.3468
mp-157,P,0.6744000000000003
mp-7112,Sr2Cu3(SO)2,0.0
mp-973738,GeBO3,0.0
mp-608071,NO2,0.8807000000000003
mp-780540,Fe6O11F,0.0
mvc-6531,Ti2ZnO4,0.0
mp-866206,Yb2AgRh,0.0
mp-19512,BaV2(PO5)2,2.2939
mp-553977,K4NpS2ClO10,0.1378999999999997
mp-862944,Er2CuRu,0.0
mp-21192,GdSi2,0.013799999999999812
mvc-11637,Fe3P3O13,0.0
mp-755834,AgSnO3,0.0
mp-764702,LiFe2(BO3)2,1.5956
mp-1094204,MgSb,0.0
mp-504864,YCu(WO4)2,1.4937
mp-2509,ThRh3,0.0
mp-570907,Tm(GeRu)2,0.0
mp-698650,Sr13Mn8O30,0.4822
mp-675298,K2NbO6,0.0
mp-762054,Li2NbCo3O8,1.9569
mp-28546,Eu4Cl6O,0.8845999999999998
mp-1029113,Te2MoW3(SeS2)2,0.0
mp-28117,VCl3,0.0
mp-2349,YCd3,0.0
mvc-7968,CaCrAs2O7,1.3289
mp-11184,Nd3Sb4Pt7,0.002200000000000202
mp-778232,Li2V3Cr2O12,0.0411
mp-557381,Rb3U3Ge2O13,0.5333999999999999
mp-690475,Cr2HO4,0.019000000000000128
mp-721943,CuSiH12(OF)6,0.0
mp-23372,Sn2Bi2O7,2.7096
mp-753456,Ce4ThO9,0.0
mp-1027927,HfMg14Zn,0.0
mp-626550,Ti3H2O7,2.8727
mp-764150,Li3V3P8O29,0.7461
mp-705030,LiCr(PO3)5,0.0912
mp-12804,SmAlSi,0.0
mp-643907,Zr2FeH5,0.0
mp-635257,NiAsO4,0.04590000000000005
mp-680577,KGa2Cl7,4.0476
mp-542767,Sr2TmRuO6,0.3142999999999998
mp-673073,LiSbP2O7,4.0558
mp-720509,Li10Si(PS6)2,2.5638
mp-756106,TbCeO4,0.15639999999999965
mp-559115,P2RhClF6,1.4247
mp-1030119,MoWS4,1.1949
mp-28374,S5N5Cl,1.4863
mp-31643,LiCrP2O7,3.064
mp-6957,Ce(FeP)2,0.0
mp-1097590,CdInHg2,0.0
mp-21945,Ge3Ru2,0.3814000000000002
mp-764105,NaNiPO4,3.1525
mp-672966,LiCu(PO3)4,0.6957
mvc-12088,Al5(BiSe4)3,0.0
mp-656852,Ti13O22,0.0
mp-560695,SrV2(NiO4)2,2.7905
mp-767311,Li2Ni(CO3)2,3.8297
mp-560530,Nb2Cd2O7,1.9354
mp-31112,Tb3GaO6,3.8948
mp-519,USb,0.0
mp-540137,LiMoPO5,1.3962999999999997
mp-505677,Hg2MoO4,2.0389
mp-20803,USbAs,0.0
mp-541956,CsTiAsO5,3.0051
mp-757031,Mg2TiO4,3.3894
mp-1080612,GdAlCu,0.0
mp-763357,LiP2WO8,2.494
mvc-15603,MnAlO3,0.0
mp-774179,Li5V3P8O29,0.9162
mp-989601,LaWN3,0.9810999999999996
mp-1424,GePd,0.0
mp-850996,Fe4O7F,0.0
mp-560986,AsSe2S(NF3)2,1.5689
mp-37233,Nd2CdS4,1.9226
mp-1018896,PrPbAu,0.0
mp-1013588,Sr3SbP,1.0247000000000002
mp-975905,Mo3I,0.0
mp-1098079,CsMg6V,0.0
mp-849776,InH10C3O11,3.4852
mp-763930,LiCo5O3F5,1.4278
mp-978963,Ti3Be,0.0
mp-1063566,MgSc2Ru,0.0
mp-21695,Ce(Ni2B)6,0.0018999999999991246
mp-19736,EuTe,0.19790000000000066
mp-1099100,Mg14CdC,0.0
mp-30854,UPt2,0.0
mp-616210,Pr5In11Ni6,0.0
mp-769004,Li3BiO4,0.9495
mp-18719,KLu(WO4)2,3.2443
mp-779929,LiCr(CoO3)2,0.0
mp-408,Mg2Ge,0.16890000000000027
mp-772021,LiMnO2,0.4664000000000002
mp-1025599,W3(Se2S)2,0.9082
mp-649419,Sr2(PPd)3,0.0
mp-752575,BaSrI4,3.2505
mp-1036102,Mg14MnSiO16,0.28029999999999866
mp-862977,Pm2AgIr,0.0
mp-28843,Tl2SnTe5,0.0
mp-755798,ZrPbO3,2.6356
mp-566555,Li3Nd3(WO6)2,3.6606
mp-760088,MgTi23O40,0.0
mp-758750,LiCuPO4,0.0
mp-765411,Li3CrSiO5,3.3511999999999995
mp-29183,LaNb7O12,0.4455
mp-1022110,LiMg6Cu,0.0
mp-766098,LiTi3Sb(PO4)6,2.4673
mp-773729,CrCuO2,1.8638000000000003
mp-25477,CoP2(H4O5)2,3.2705
mp-14793,Mg2SiPt,0.0
mp-1094993,Ce3Mg,0.0
mp-972658,SmBi3,0.0
mp-542431,SrV13O18,0.12710000000000046
mp-1073298,MgSi2,0.0
mp-1096165,Y2MgCd,0.0
mp-26710,LiSnP2O7,0.13139999999999974
mp-744075,Ca8La2Ti5Cr5O30,0.0
mp-30342,HoInAg2,0.0
mp-1031173,NaMg6TiO8,0.0
mp-1040085,NaLiMg30O31,2.6443
mp-1097508,LaZrAu2,0.0
mp-558592,Sb8Br2O11,2.6698
mp-769473,Li13Ni9O22,0.0
mp-570843,Tm(GeRh)2,0.0
mp-567062,SrLiFeF6,4.1239
mp-757206,BaTi6O12,0.0
mp-1096110,Ba2ZnPd,0.0
mp-556405,LaCN2F,2.681
mp-1032276,SrMg6CuO8,0.0
mp-769855,SrCrO3,0.7904
mp-19002,TmNiO3,0.07419999999999982
mp-781498,LiMn(PO3)3,3.7802
mp-767803,P2WO8,2.9566
mp-559395,KLuP2O7,5.1215
mp-2006,V3Ir,0.0
mp-1096994,HfN,0.0
mvc-1923,Ti9O13,0.0
mp-22872,SbCl3,3.7419
mp-772025,TaIn3O7,0.9951999999999996
mp-1096971,GaAgO2,0.5618999999999996
mp-1087474,PrClO2,0.06209999999999999
mp-780432,La3Al5O12,3.7948
mvc-16442,CaCuF4,0.7140999999999998
mp-32455,VP2O7,1.4133999999999998
mp-8195,Ba2GeAs2,0.5171000000000001
mp-697168,MgH6(NCl)2,4.7741
mp-771407,Li3Fe(BO3)2,2.0792
mp-763155,Li4Co3Ni2Sb3O16,0.0
mp-1079971,Sr2ZnMoO6,2.4322
mp-561405,SnH8(CO)4,4.481
mp-569807,RbTiBr3,0.0
mp-569724,ErAgSn,0.0
mvc-6503,Mn2ZnO4,0.6234000000000002
mp-773936,Li4Ti3V3Cr2O16,0.8841999999999999
mp-1078292,CdCu2SnS4,0.0
mp-697946,Cs2Zr2ZnH12(OF2)6,4.1025
mp-14636,Rb2NbAgS4,2.2132
mp-982378,Na3Cr,0.0
mp-1074798,Mg7Si4,0.0
mp-15608,Ba(MnAs)2,0.0
mp-567735,Nd5Si3,0.0
mp-1029967,Rb15W7N19,1.426
mp-1021410,Mg6SnW,0.0
mp-31960,LiMnP2O7,1.4279000000000002
mp-2559,SeS,0.0
mp-770270,LiCoBO3,2.1166
mp-1023148,Mg6MnFe,0.0
mp-25508,Li2CrPO4F,2.765
mp-868637,Li7(CoO3)2,0.28689999999999993
mp-19966,GdTl,0.0
mp-1016219,NaMg3,0.0
mp-19517,KVPO5,1.5461000000000005
mp-1097394,La2ZnCd,0.0
mp-19427,Na7(CoO3)2,0.0018999999999997905
mp-755488,SrTaNO2,0.8909999999999999
mp-771956,Tb2Zr2O7,4.0184
mp-1078766,GaFe3,0.0
mp-29039,P3RuO9,0.032499999999999966
mp-639747,Ba,0.0
mp-763375,V2NiH6(NO3)2,2.206
mp-1074347,Mg4Si3,0.0
mp-1033127,YMg6AlO8,0.0
mp-555960,SiO2,5.3454
mp-765333,Li5Mn3O5F3,0.6690999999999998
mp-1078233,H3CCl,5.5625
mp-771104,Li5Fe3(SbO5)2,0.0
mp-15862,GaMo4CS8,0.0
mp-763976,V4O7F5,1.3889
mp-774145,Li2V3SbO8,1.5627000000000004
mp-776485,NbV3O8,0.36860000000000026
mp-630820,Yb4Cu2Sn5,0.0
mp-20336,USn3,0.0
mp-1032756,YMg6ZnO8,0.0
mp-697072,CuHIO4,0.07810000000000006
mp-771856,MnVO4,0.5005
mp-772665,BeCrO4,2.272
mp-867815,AcGa3,0.0
mp-570147,Sc6Si11Ni18,0.0
mp-672184,RuC4(IO2)2,2.0611
mp-762561,LiFeP2O7,2.5368
mp-778877,Li5InO4,2.4721
mp-21284,LiMnAs,0.0017000000000000348
mp-763390,LiCoCO4,0.9209999999999999
mp-1099256,Mg3BO4,0.0
mp-690951,ErZr11Si11PO48,4.0268
mp-626727,SrH4O3,4.3486
mp-853142,Li4Co2OF7,1.2875
mp-773929,CrCuO2,1.9082
mp-540260,Li2Cr(PO3)4,3.2681
mp-1025198,NpGa5Ni,0.0
mp-21447,Nb4CoP,0.0
mp-849052,VS,0.0