mpid,formula,gap pbe
mp-1073302,MgSi2,0.0
mp-684884,Ba4TlBiPb2O9,0.0
mp-1027870,Mg14ZrBi,0.0
mp-761954,Li6Mn3Cu(PO4)6,0.0013000000000000787
mp-3021,Tl(FeSe)2,0.0
mp-568059,LuBi,0.0
mp-505270,TiSO5,2.5707
mp-570782,MgCl2,5.1512
mp-761746,LiCo2(PO4)3,0.0
mp-709400,HgH4C4(Br2N)2,2.4169
mp-851016,LiFePH2O5,3.4895000000000005
mp-19305,CaV2O5,1.8884
mp-540073,LiFe(PO3)4,2.6117
mp-972907,Sc2AlAg,0.0
mp-20646,Sm(MnGe)2,0.000399999999999956
mp-1072996,Mg2Si3,0.0
mp-556332,V7O13,0.6304000000000003
mp-6565,Li3Sc2(PO4)3,4.7407
mp-862912,PmHgAu2,0.0
mp-761164,LiNbF5,0.0633999999999999
mp-763949,Co6O7F5,0.0
mp-17056,LiZnPO4,4.1081
mp-19348,Al4Co(BO5)2,2.855700000000001
mp-1027474,MoWSe3S,0.7044000000000001
mp-558212,KNaNdNbO5,3.4371
mp-714873,MnO2,1.9867
mp-1098991,Mg14AlCoO16,0.5928999999999993
mp-619032,PbCN2,1.7321999999999995
mp-23074,BiOF,3.1226000000000003
mp-540434,LiCo(PO3)4,1.5332
mvc-8255,Ca3Fe4(WO4)6,2.051
mvc-15903,AlVO3,1.729
mp-773439,Li3FeOF4,2.3849
mp-567795,Tm10In20Rh9,0.0
mp-697819,Fe2P3O13,0.018500000000000072
mp-1095995,NaTlHg2,0.02629999999999999
mp-679949,La15B14C19,0.0
mp-975596,PuIrO3,0.0
mp-1028463,Te2MoW3(Se2S)2,0.0
mp-752682,Ba2Sr7I18,3.419
mp-778824,Li4Cr(WO4)3,1.6962000000000006
mp-775109,Li2TiCo3O8,0.0
mp-865685,Eu3P,0.0
mp-1008752,CeTe,0.0
mp-22777,NaN3,0.19900000000000007
mp-769949,Na2MnO3,1.5223
mp-9549,ScFeGe,0.0
mp-574138,Cs2Te3As,0.8325
mp-5564,Pr(AgGe)2,0.0
mp-31750,CrPO4,2.1381
mp-861126,Li4Ni(PO3)6,3.8621
mp-1030393,TeMoSe,0.014700000000000381
mp-569511,NiTePd,0.0
mp-1098572,HfMg30CrO32,0.0
mp-977549,Zr2OsRu,0.0
mp-1064001,URh3,0.0
mp-29244,Cd2P3I,1.0992000000000002
mp-1015,ZrMn2,0.0
mp-973330,SbPH4(O2F3)2,4.1387
mp-9179,Ba3Zr2S7,0.5049999999999999
mp-759754,Ti11O14,0.0
mp-1019534,BaAl4O7,3.6891
mp-1034357,NaMg14BiO16,1.8569000000000004
mp-568266,Tm2NiAs2,0.0
mp-1072208,DyOF,5.020200000000001
mp-7105,NdSi2,0.0
mvc-162,Zn(NiO2)4,0.0
mp-19631,Cr2Fe3(SiO4)3,3.1737
mp-29908,Sr11(ReO6)4,0.004299999999999749
mvc-10638,CaMo4O9,1.0328999999999997
mp-686722,Na3TlH24(ClO2)6,2.3972
mp-2550,NdTe2,0.0
mp-31931,LiMn4(PO4)3,2.8120000000000003
mp-21476,Fe2N,0.0
mp-1029576,RbOsN2,0.0
mp-558335,Na2Pd(NO2)4,1.9466
mp-864685,Nd2In8Pd,0.0
mp-19858,Sr,0.0
mp-619775,Y7C2I12N,1.0406
mp-985702,AgPb3,0.0
mp-771049,Li2CoBO4,1.3633
mp-1080687,Tc(NF3)2,0.0
mp-976307,K4Ba(SiO3)3,4.3719
mp-505173,NaZrCuTe3,0.0
mp-1077001,GaCu2,0.0
mp-20767,Fe(SbS2)2,0.014999999999999682
mp-861491,LiMnPO4,3.5114
mp-1035885,BaYMg14O16,0.16690000000000005
mp-7523,Th2TeN2,1.6182999999999996
mp-708,LaAs,0.0
mp-720215,K7H12Pt4C16(N8O3)2,0.0
mp-764579,LiFe3OF5,2.5003
mvc-529,BaTl(MoO3)2,0.0
mp-754266,Li8TiS6,1.0393
mp-1080018,Th(CoSn)2,0.0
mp-1025436,YU2S3O2,0.0
mp-866102,ErHg3,0.0
mp-1031226,RbMg6TiO8,0.0
mp-697180,Mg3In,0.0
mp-1035108,LiMg14GaO16,3.7045
mp-761819,Li4VFe(TeO6)2,1.2719
mp-554025,SNF,4.0441
mp-976397,Ho3(In2Co)2,0.0
mp-556347,K2ReCl5O,0.6691
mp-1096503,Mg2CuAg,0.010999999999999677
mvc-8880,Bi2O5,0.0
mp-972639,SmDyIr2,0.0
mp-18230,Si(Hg2Se3)2,0.14360000000000014
mp-568299,K2PtC4(BrN2)2,1.9429
mp-667376,SiO2,5.5820000000000025
mp-1076927,GdPb3,0.0
mp-1028872,TeMoWSeS2,0.40700000000000003
mp-1094436,MgZn2,0.0
mp-1094008,Zn(GaS2)2,0.8921999999999999
mp-555488,Na5AlP2(O4F)2,4.6654
mp-1028158,CaMg14Zn,0.0
mp-557528,ScH3(CO2)3,3.4018
mp-769554,LiMgCr3(SO4)6,2.4161
mp-1095790,Mg2ZnAg,0.0
mp-860892,Y(Bi5O8)3,1.2981999999999996
mp-1009495,OsN,0.0
mp-1026670,NaMg14Nb,0.0
mp-28626,LaSO,1.522899999999999
mp-863718,PmNi3,0.0
mp-4448,Y3AlC,0.0
mp-771067,CrSO4,1.5224000000000006
mp-28332,CsTlI4,1.238
mp-13486,LaCoCu12,0.0
mvc-3192,MgNiF5,1.2876
mp-31608,CoP2O7,0.1492
mp-531530,MgAl2O4,4.183400000000002
mp-864803,NaAcAu2,0.0
mp-28873,CsBrO3,4.3026
mp-765097,W2OF8,2.5313
mp-1028104,LaMg14Mn,0.0
mp-697751,Li2Mn(PO3)4,4.101
mp-569187,BH6N,6.0656
mp-29900,NiGe2,0.018199999999999328
mp-973585,LuIO,3.2624
mp-1070662,Gd2BiO2,0.0
mp-1031392,BaMg6TiO8,0.0
mp-851070,Li3V3P8O29,1.1946
mp-10877,Ca(Al2Cu)4,0.0
mp-758037,Li2Ti3P9O28,0.006699999999999928
mp-8636,Nb,0.0
mp-1098946,Mg30VSnO32,1.6429
mp-6939,Sr(BIr)2,0.0
mvc-14450,Mg(VS2)2,0.0
mp-540469,Li2Co3(P2O7)2,2.9205
mp-3222,La3RuO7,0.3520000000000003
mp-18861,BaNd2Mn2O7,0.0
mvc-2904,Ca4Sn5(TeO6)3,1.3655
mp-6941,Y2Si3N4O3,2.7943
mp-540164,LiNiP2O7,0.0010000000000000009
mp-1094380,MgTi2,0.0
mp-3407,TlCr5Se8,0.000399999999999956
mp-1028224,YMg14Co,0.0
mp-23352,Ge(Bi3O5)4,2.3733000000000004
mp-735984,Na3Ca2Fe5(SiO3)10,0.8784999999999998
mp-669308,Cs3Tm2I9,2.8921
mp-773067,Er3TaO7,3.5103000000000004
mp-555118,NaPO3,5.081
mvc-3419,CaTiF5,0.2067000000000001
mp-861645,Ca2MgTl,0.0
mp-1030580,TeMoWSeS2,0.0
mp-769984,Li4AlCr3O8,3.1048
mp-1070917,Nd2Co2SiC,0.0
mp-583771,Ce4MnSe6O,0.0
mp-28965,AgBi2F12,0.39680000000000026
mp-973307,Mg5As,0.0
mp-650285,Mn14Si23,0.0
mp-767297,MnH8C2S2(NO2)2,3.9825
mp-566323,RbLiMoO4,4.5427
mp-574221,Np(SiPt)2,0.0
mp-567701,Ba21Al40,0.0
mp-762971,Li2V3O6,1.1098000000000003
mp-761302,Li2VNi(PO4)2,1.7625000000000002
mp-11472,SrHg2,0.0
mp-770952,Li4Co3Ni(PO4)4,2.5693
mp-767936,Li4Fe2Cu3Sb3O16,0.0
mp-998160,TlCoF3,0.0
mp-977364,HoPaOs2,0.0
mp-1036988,Mg30CrCoO32,0.7733999999999996
mp-15397,Ti7Al2O15,9.999999999976694e-05
mp-1028334,KMg14V,0.0
mp-568925,Ni2Sn4Au,0.0
mp-971957,Tm3Pb,0.0
mp-556726,Re2SCl12,0.6747
mp-1073750,MgSi,0.0
mp-566467,LiMgIn(MoO4)3,3.1865
mp-39770,Zr2P3H4NO12,4.2944
mp-774047,Ta2CrO6,1.2518000000000002
mp-552802,ErU2S3O2,0.0
mp-566788,Na2Mn2O3,0.7443
mp-558412,H2CO2,4.8418
mp-1075771,Mg3Si2,0.0
mvc-13772,TeN2,0.0
mp-775675,V3Fe2Sb(PO4)6,0.0
mp-763575,Li10Co(SiO5)2,1.9409
mp-556034,CO2,6.6688
mp-1097154,Y2HgAu,0.02679999999999972
mp-691115,Li4Mn5O12,0.9998
mp-554508,KYP2O7,5.065
mp-766628,Li5V3P8O29,0.9464
mp-781054,Li2Cr4O13,1.4861
mp-3277,BAsO4,4.2615
mp-565302,ErMoO4F,3.7276
mp-762385,Li4(NiO2)11,0.8376999999999999
mp-777951,LiMnF3,3.5243
mp-1002188,TcB,0.0
mp-997515,Li(Fe2O3)4,1.0889999999999995
mp-27180,NdSBr,2.6375
mp-1019778,K2Li3B(P2O7)2,5.5903
mp-864631,LiNbRh2,0.0
mp-1027820,Mg14VCu,0.0
mp-1076626,Sr2Ca6FeCo7O24,0.0
mvc-1310,BaYCr4O7,0.10650000000000047
mp-1037247,YMg30BiO32,0.0
mp-781788,K2LiNb6(PO8)3,2.2356000000000003
mp-763833,NaLiMnPCO7,0.7532
mp-8717,Rb2MnSe2,1.1526999999999998
mp-676365,Li2TiO3,2.338
mp-1034404,Mg14VCdO16,1.0717999999999996
mp-23397,MoPCl9,0.0
mp-675367,Nb3IrS8,0.0
mp-867215,Sc3OsC4,0.0
mp-555532,CsBC3NOF9,2.5838
mvc-10016,LaVCrO6,0.3919000000000006
mp-705559,Na3Ca3Zr2Si4(O5F)3,3.0769999999999995
mp-557955,Ca3Al4ZnO10,3.5447
mp-12981,ScN,0.0
mp-756293,La2HfO5,4.1804
mp-720804,K3Na3TeP6(HO4)6,4.0183
mp-1094101,Nd3PbN,0.0
mp-23939,H2O2,4.1497
mp-975296,RbHoO3,0.0
mp-672392,Dy(FeSn)6,0.0
mp-1096339,Y2AgPd,0.0
mp-761987,LiNiPO4,3.1173
mp-730972,UP3H10ClO8,0.3782999999999999
mp-6562,Ba2CuHgO4,0.0
mp-31572,Co(PO3)4,0.17899999999999994
mp-1098350,CsMg30TiO32,0.4028999999999998
mvc-10001,Ba2V2F11,1.2738
mp-3719,Rb3NbS4,2.4442
mp-762428,LiCrSiO4,2.7106
mp-17158,Ta3Co3C,0.0
mp-1032533,Mg6ZnCrO8,0.0
mp-1029815,KMoN2,0.0
mp-861684,LiMnPO4,3.5553000000000003
mp-31688,LiCr2(PO4)3,0.11120000000000008
mp-738687,MnH19C6I3N2,2.427
mp-735518,FeH2Cl5O3,0.0
mp-684029,CdI2,2.3629
mp-765549,Li7CoOF7,2.267
mp-866871,Ca4SnS6,1.8132
mp-559756,PrScO3,4.2587
mp-12598,PrPt3,0.0
mp-30898,Ce2B2Ir5,0.0
mp-761956,Li3V3P8O29,1.0929
mp-972874,SeBr3,0.0
mp-569913,Ce3SiPt5,0.0007000000000001452
mvc-10024,LaCrSnO6,0.3163999999999998
mp-778755,Li8MnFe7(BO3)8,3.1258
mp-28895,Ba(P2Pd)2,0.0
mp-32329,Ni5(PO4)4,0.0033000000000000806
mp-778552,Fe3(OF3)2,0.1911
mp-22434,HfFeP,0.0
mp-705894,RbSi2Mo3P6O25,0.3645000000000001
mp-721592,Ca6Al7O16,0.0
mp-782632,LiNi(SO4)2,0.0
mp-23276,InCl,2.1862
mp-707364,AgH3CN3O4,0.4312
mp-861717,Li8MnFe7(PO4)8,3.8808
mp-1022963,IrO3,0.0
mp-23926,K2HgH2Cl4O,2.7153
mp-567124,Fe3O4,0.7350999999999996
mp-20514,GdSnAu,0.037199999999999456
mp-13133,K2TiO3,3.4121
mp-1097659,Y2GaPd,0.0
mp-672963,Sb(PO3)4,0.0
mp-1377,ThCu2,0.0
mp-1097190,HfTiAu2,0.0
mp-764403,LiMn7(OF3)3,1.3932
mp-851029,Li4Ti3Ni3(SnO8)2,0.4062999999999999
mp-13444,LiSn,0.0
mp-29841,Rh3S4,0.0
mp-33753,TaHO3,2.7443
mp-12061,Lu(FeB)2,0.0
mp-530,Nd4Sb3,0.0
mp-1029378,Mg2SbN3,1.3582999999999998
mp-1094118,Mn3InC,0.0
mp-543051,Lu5Sb3,0.0
mp-540982,VP3(HO5)2,2.2192
mvc-11819,Al14(CuSe8)3,0.0
mp-762253,V(CO3)2,0.773
mp-647305,SiAg5ClO4,0.5733000000000001
mvc-8983,ZnSb3O7,0.0
mp-556189,Ba3NiIr2O9,0.0
mp-570765,YMg4Cu,0.0
mvc-6076,Mg(BiO2)2,0.9699999999999998
mp-15644,DyB2C,0.0
mp-865981,TmMgHg2,0.0
mp-25533,VFeH2O5,2.2881
mp-1024036,Mg3SiO4,0.8046999999999986
mp-1027150,MoW(SeS)2,0.6591
mp-777461,Li4V3Cr2Sn3O16,1.3282000000000005
mp-1094369,Mg2Ti,0.0
mp-16363,CoAsS,0.8512000000000004
mp-764231,Li3VO3F2,2.8286
mp-1096600,Nb2TcMo,0.0
mp-772105,Li2Zr2O5,3.886800000000002
mp-32590,U4N7,0.0012999999999987464
mp-20839,Ni4N,0.014699999999999937
mp-849514,LiMn3(BO3)3,0.17520000000000002
mp-540292,LiCrPO5,0.2995000000000001
mvc-11663,Y(NiO2)2,0.0
mp-706979,PH6N3O,4.6727
mp-705753,Fe38O39,1.3910999999999998
mp-675103,Sr6Bi2O11,1.0428000000000002
mp-676156,Gd5AgS8,1.1215000000000002
mp-770885,Li3FeO3,2.2955
mp-1069988,Y(SiPd)2,0.0
mvc-5047,Zn2SnWO6,1.7655999999999996
mp-863,PuCo2,0.0
mp-1096991,Cs2Sn11,0.5773999999999999
mp-1078198,Ba2CoAg2(SeO)2,0.0
mp-766761,LiFePO4,3.4596
mp-10556,Sr2LiReN4,1.8099
mp-744017,CoHCO3,1.3156
mp-17984,Ag8SnSe6,0.00099999999999989
mp-20384,CeAgAs2,0.0
mp-31367,LiClO2,2.6926
mp-722864,H12PtN6(ClO3)2,2.1975
mp-1076685,K4Na4MoW7O24,0.0
mp-631331,Si2HgTe,0.0
mp-647218,Re2P2O11,0.597
mp-721268,H6S(NO2)2,2.0645
mp-30755,La2Sn5Rh3,0.0
mp-1413,P2Ru,0.4749999999999997
mp-35695,Li2HN,2.4721
mp-761450,LiFeSi3O8,3.1816
mp-765753,NaMnO4,1.9123
mp-772344,Li5Nb2Ni5O12,0.0
mp-557733,KNiIO6,1.7517999999999998
mp-769772,Li2CrO3,0.8223000000000003
mp-675835,Dy2Zr8O19,2.3535000000000004
mp-779803,Li32Mn13Cr3O48,1.2155
mp-1027609,TeMoWSeS2,0.0
mp-1036383,CaMg14TiO16,0.2129000000000012
mp-973681,LuRhO3,0.0
mp-1074729,Mg2Si,0.0
mp-21443,Ce2Pd2Pb,0.0
mp-20870,Dy2InPd2,0.0
mp-757218,K4Na2H18Pd(IO10)2,1.6804
mp-571469,Sm3Mg13Zn30,0.0
mp-978829,Sm3Hf,0.0
mp-1078370,CeBi2Au,0.0
mp-1094490,MgZn,0.0
mp-762719,Li2FeSi4O11,0.0
mp-10935,NaErPO4F,5.5176
mp-764671,LiMn7O7F,0.0
mp-18360,Ca5P12Ir19,0.0
mp-19054,BaMnCO3F2,4.0828
mp-1029234,MoW3(SeS3)2,0.5024000000000002
mp-1034523,SrMg14VO16,0.8858000000000006
mp-1025075,TbB2Ir3,0.0
mp-11445,Y(TiGa2)2,0.0
mp-5079,KSbF4,4.4258
mp-1098091,HfMg30BO31,0.8581000000000003
mp-29384,Rb3TlCl6,2.274
mp-1080495,ZrGaPt,0.0
mp-1008526,B2CN,0.0
mp-1087542,UNiC2,0.0
mp-680451,Sm25Ni49P33,0.0
mp-1076638,RbVO3,0.2498
mp-758178,Li2Cu3(CO3)3,0.0
mp-583030,MnSnPt,0.0
mp-558869,CdFeC5N6O,2.7390000000000003
mp-774156,NbFeO4,1.0865
mp-561207,UV2O8,2.1575
mp-20079,CaPbO3,0.9331999999999998
mvc-7960,CaCoAs2O7,2.1148
mp-771474,V4FeCoO12,0.0
mp-767916,Li2SiNiO4,3.5472
mp-763259,Mn3(PO4)2,2.8392
mp-562109,Sr2InSbO6,1.7508999999999997
mp-23083,KAs4BrO6,2.7254
mp-763326,CoOF,0.0
mp-1018033,AgRhO2,0.7869999999999999
mp-1059765,CoBr,0.0
mp-761910,Li3Cu2F8,0.007500000000000062
mp-1094255,Zr3Sn,0.0
mp-9867,Ba2Si3Ag,0.10760000000000014
mp-610744,Cs2MnTe2,1.0935
mp-760812,Li3CuF6,0.8733
mp-761126,Cu4OF6,0.18480000000000008
mp-866664,K8Zr6BBr20,0.052999999999999936
mp-690567,BaLaMnRuO6,0.0
mp-765456,Li4Mn3Cr3(CuO8)2,0.0
mp-773758,Mn3(OF2)2,0.0
mp-1097409,Hf2CuMo,0.0
mvc-13239,TiF4,4.3349
mp-4019,CaTiO3,2.3238
mp-554962,CsK2CoO2,1.6757999999999995
mp-862632,LiCa2Al,0.0
mp-1026858,CsMg14Co,0.0
mvc-14721,MgVF6,0.0
mp-1097959,LiEu4(BN2)3,0.0
mp-770689,Li2MnAl2O6,1.9549
mp-763736,LiMn4(PO4)3,2.8675
mp-218,Sm2O3,3.7823
mp-1074408,Mg4Si3,0.0
mp-684127,K3(Na13In24)2,0.0
mp-1026941,Te2Mo3W(Se2S)2,0.0
mp-976032,PrHoZn2,0.0
mp-30303,Bi4O7,0.904
mp-764891,Li5Fe8(BO3)8,1.4773999999999998
mp-1093913,LaZnAg2,0.054600000000000204
mp-23482,BaBiO3,0.0
mp-1031191,LiMg6WO8,1.3883
mp-861952,PuBi3,0.0
mp-560995,Y(IO3)3,3.4466
mp-771679,Li2VGa3O8,2.2332
mp-771608,Li3V6O16,0.0
mp-705377,Li3Ni2(PO4)3,0.0
mp-1068484,Mn3ZnN,0.0
mp-15722,Fe2B4Mo,0.0
mp-1016119,NaMnO2,1.3261999999999996
mvc-2938,CaNiF5,1.1432000000000002
mp-1079810,HfSn2,0.0
mp-793791,Sm(FeO2)2,0.0
mp-867928,ScGaRh2,0.0
mp-7973,RbNdO2,3.4261
mp-763453,Ca3V10O25,0.9242
mp-680728,K6Fe24S26Cl,0.0
mp-1078579,Fe4C,0.0
mp-772769,Na2Ge2O5,3.1185
mp-763383,LiP4WO12,4.1833
mp-28788,Ba9(AuO6)2,1.8827
mp-995190,KCaSiHO4,4.3515
mp-9545,Tm2C3,0.0
mp-1077563,CoTeMo,0.0
mp-568024,ICl,1.4693
mp-1026898,Mg14CuBi,0.0
mp-1093641,Li2HgPt,0.0
mp-2591,Ti3O,0.0
mp-1066583,TlRe,0.0
mp-1079649,Si,0.0
mp-1003638,NaMn8O16,0.0
mp-23684,NaHCO2,4.9002
mp-865342,Zn3Rh,0.0
mp-28962,Ti4Bi2O11,2.0404000000000004
mvc-11532,Ti2AlO4,0.0
mp-998713,TlInCl3,1.5597
mp-861888,CeBiAu2,0.0
mp-505584,LaMo5O8,0.9783999999999996
mp-1079427,Na2CuO2,0.0
mp-684704,H2O,4.749499999999999
mp-562231,Ta2CoO6,2.5215000000000005
mvc-5040,MnZn2WO6,2.135
mp-621981,TlAg(CN)2,2.6981
mp-704546,RbNaCr2O7,2.6638
mp-850779,HoTa7O19,3.1653
mp-556819,Tl2Cd2(SO4)3,4.0297
mp-505682,Dy2Te,0.006800000000000139
mp-617167,CoI(NO)2,1.5959
mvc-9031,LaZnFeSbO6,1.1670999999999996
mp-14983,Si4P4Ru,1.4604
mvc-8217,ZnCoSn2O7,0.10009999999999986
mp-504964,Rb2Na4Co2O5,1.2621
mp-1072191,SnCI3N,0.0
mp-28430,Na2TbO3,0.0
mp-2802,HfRu,0.0
mp-625284,FeHO2,1.759
mp-31134,PtCl3,1.0698
mp-30374,DyInAu2,0.0
mp-567491,Rb4Ti2P6Se25,1.1851
mp-31854,LiFeP2O7,2.6104000000000003
mp-18019,K3Sm(PO4)2,4.9728
mp-705303,Li2MnP2O7,4.2548
mp-1026475,SrMg14Ti,0.0
mp-1096157,MnTlRh2,0.0
mp-1094013,Zn(GaS2)2,1.2869000000000006
mp-559343,KCu4(PO4)3,0.1612
mp-771382,LiVBO4,0.399
mp-753689,Ba2Nb8O11,0.0
mp-1073799,MgSi,0.0
mp-554021,Sr2CoWO6,1.6379000000000006
mp-1019380,Al3BN4,3.359
mp-780886,Mn3Cr3(CoO8)2,0.0
mp-28933,Br2O3,1.7587
mp-697754,Li2V(PO3)4,3.0199
mvc-1298,Ba2AlCr3O7,0.0
mp-765248,LiMn2F7,0.8189
mp-761579,FeCo3O8,0.0
mp-686382,Sr2La14Mg2Ga14O45,0.0
mp-674298,Al22CdO34,2.2583999999999995
mp-774193,La2WO6,3.654
mp-1094240,MgSn5,0.0
mp-752404,Ba2Sb2O7,0.9781999999999996
mp-697914,ZrP2(H3O5)2,4.4371
mp-24345,ZnH12(SO6)2,5.0235
mp-674456,Zr10HN8,0.0
mp-559335,ZnAg2C4(SN)4,3.0003
mp-1030883,Mg6CrSiO8,0.0
mp-765310,Li5Ni2O2F5,2.1843000000000004
mp-698605,CaGaBiB2O7,1.2817000000000005
mp-765739,VOF,0.7756999999999996
mp-557647,Na6CoS4,0.4270000000000001
mp-27552,TlPbI3,2.3498999999999994
mp-570181,Np3Se4,0.0
mp-1094950,MgGa3,0.0
mvc-6946,SnO2,2.0890000000000004
mp-560812,KU2(PO4)3,0.008500000000000174
mp-676362,HIO4,1.5685
mp-634989,TlSbTe2,0.0
mp-1026883,Mg14CoSi,0.0
mp-754712,NClO3,2.943
mp-780839,LiFeF3,3.3554
mp-1099042,CaMg14CoO16,2.146299999999999
mp-559259,Ni2Hg2SF6,2.1476
mp-771502,Li5Nb2Ni5O12,0.016600000000000392
mp-1075655,Mg5Si9,0.0
mp-777604,Li2MnCo3O8,0.0
mp-616407,N2O3,0.9366
mp-1006057,LaPrIn2,0.0
mp-3698,SrAlSi,0.0
mp-569081,Tb5SbAu2,0.0
mp-1497,TaN,0.0
mp-999292,Pd3N,0.0
mp-10566,Lu3BC3,0.0
mp-30321,Y2P4O13,5.6411
mp-11132,KPrTe4,0.16909999999999936
mp-40668,NaCoP2HO7,2.9879
mp-773355,Li3V(FeO3)2,0.0
mp-865326,Lu2PdPt,0.0
mp-1040464,NaOsO3,0.0
mp-623295,SmGaCo,0.0
mp-22250,Mg2SiB2Ir5,0.0
mvc-4985,ZnCu(SiO3)2,0.15490000000000004
mp-765282,Li16Mn15(CuO12)3,0.3174000000000001
mp-16652,Tb2MgPd2,0.015799999999999592
mp-28163,K2PdF4,1.8732
mp-557762,TiS,0.0
mp-757070,BaCaI4,3.0154
mp-743931,La5FeRe3O16,0.0
mp-25188,Nd2(WO4)3,3.9463
mvc-13329,Sr9Zn2(CuO7)2,0.0
mvc-2659,Mg2Ta2CrO8,1.5343999999999998
mvc-15868,ZnCoO3,0.0
mp-978919,Ba3Tb,0.0
mp-697657,CaP4(HO6)2,5.6370000000000005
mp-579223,Na3LaV2O8,3.7596
mp-566800,Cs5CaNi4F15,5.4603
mp-19026,Na4FeO3,1.3899999999999997
mvc-12243,Ba2Fe2CuF14,0.29579999999999984
mp-684956,Tl2O3,0.1854
mp-866656,GdFeB4,0.0
mp-11570,TbSn3,0.0
mp-989618,Cs2RbGaF6,5.939299999999999
mp-1079984,BaAl,0.0
mp-542551,K6Co2O5,0.2608000000000001
mp-977059,MgPd5,0.0
mp-757560,Li3Sn2(PO3)7,4.3251
mp-761326,LiVPO4,2.1744000000000003
mp-33137,TcO2,0.0
mp-1093591,HfNbRu2,0.0
mp-771489,Li2NiCSO7,3.4721
mp-849678,Li2Fe4OF8,2.2139
mp-504909,Ni2SnP,0.0
mp-770238,LiMnPCO7,0.9834
mp-775011,Li2NbFe3O8,1.8009
mp-853172,Li2VF4,2.6202
mp-774410,Li8Mn3Fe5(BO3)8,0.0
mp-770535,Mn2P4O13,0.8516
mp-23161,NpCl4,0.0020999999999999908
mp-16267,Dy2CdS4,1.0877
mp-781865,Ca5BC4Cl3,0.7345999999999999
mp-865091,HfMnRh2,0.0
mvc-10379,Ca(MoO2)2,0.9438000000000004
mp-15577,Pr4Ga2O9,3.6092
mp-765395,Li4V3P8O29,0.8230999999999999
mp-998624,NaOsO3,0.0
mp-978510,Si3As,0.0
mp-566749,YMoClO4,2.781
mp-22271,Cu(AsO2)2,0.6278000000000001
mp-705431,Li6Fe5(P2O7)4,0.0
mp-625557,Cd(HO)2,1.2454999999999998
mp-767337,Li2SiNiO4,3.0798000000000005
mp-768908,Ho2TeO2,0.5862000000000007
mp-849790,SiH21C6N2OF5,5.644399999999999
mp-31529,CoP2O7,0.0
mvc-28,Ba2Mg3Tl2(FeO3)4,0.0
mp-8762,Er2S2O,2.6472
mp-20198,CaIrO3,0.0
mp-1028237,NaMg14Al,0.0
mp-762835,Li2Mn(FeO3)2,0.9044000000000004
mp-541746,Mn3BO5,0.05699999999999994
mp-1071694,TmZnGa,0.0
mp-567703,Fe3NiN,0.0
mp-769028,Si3Sb2O9,4.1105
mp-1099112,RbCaMg6,0.0
mp-1017493,CeMg6Si,0.0
mp-8931,Rb2SnAs2,0.6783999999999999
mp-626075,MnHO2,0.5112000000000001
mp-155,Gd,0.003200000000000092
mp-772711,Na3SiBiBO7,0.0
mp-20975,CeIn5Ir,0.0
mp-3446,SrTm2O4,3.8127
mp-1096965,CrN2,0.11450000000000005
mp-765584,Sb(PO3)4,0.11949999999999995
mp-766895,Cr8Ni50Mo17,0.0
mp-605853,Li4CO4,5.5673
mp-864999,Dy2IrRh,0.0
mp-1076580,La5Sm3Cr6(FeO12)2,1.7537000000000005
mp-622107,CeCd2,0.0
mp-560631,KUSi2O7,0.5872000000000002
mp-24201,H2S,0.0
mp-721246,Sr6CoC2N7,0.2744
mp-1013553,Sr3AsP,0.0
mp-753614,Fe(PS3)2,0.0
mp-22360,U2Co2Sn,0.0
mp-626528,NbHO3,2.5186
mp-28437,RuClF8,1.1203
mvc-14542,ZnFeO2,0.8465000000000003
mp-566891,Lu2WO6,3.612
mp-558636,CaAl2O4,4.9819
mp-566298,Sr2UFeO6,1.1307000000000005
mp-677132,Gd2CdSe4,0.9607
mp-567195,Ce2Ga12Ni,0.0
mp-676341,Na2UF6,0.2492000000000001
mp-1031251,KMg6SiO8,0.0
mp-2136,Sb2O3,2.2239000000000004
mp-1093832,CdCu2Rh,0.0
mp-972966,Sc2OsAu,0.0
mp-1060787,RbP,0.0
mp-7876,Ba(MgGe)2,0.0
mp-13121,CeGe3Rh,0.0
mp-773576,LiZn2Fe9O16,1.5292
mp-21309,MgTe(PbO3)2,2.2616
mp-1841,SiIr3,0.0
mp-8416,BaCaGaF7,6.0134000000000025
mp-677151,YbTiCdSbO7,0.0
mp-674478,BaCO3,4.1595
mp-632291,H2,8.8483
mp-566,CeP5,0.0
mp-22480,GdScSi,0.0025000000000003912
mp-752638,LiCuCO3,2.4586
mp-79,Zn,0.0
mp-1094371,MgTi2,0.0
mp-565850,La2WO6,3.5606
mp-620032,Ti2Se,0.0
mp-1675,Ho3Ge4,0.0
mp-1030730,NaMg6BO8,3.5359
mp-5386,Er(SiRh)2,0.0
mp-631556,BaGe2B,0.0
mp-11286,CaHg,0.0
mp-1035240,Mg14CdCuO16,0.0
mp-27210,RbTlF4,2.7647
mp-765807,Li4V5O9F,1.4687000000000006
mp-1006118,P2S7,1.8908000000000005
mp-569203,Tl3Bi2I9,2.3647
mp-21348,Ba2EuTaO6,0.02389999999999981
mvc-16730,Li(CrS2)2,0.0
mp-30147,ZrTiAs,0.0
mp-1071675,GdSiPt,0.0
mp-1098289,RbMg6C,0.0
mp-850113,Fe7(Ni3O8)2,0.9307
mp-6075,Ba2Li(BO2)5,4.9517000000000015
mp-557865,NO2,2.781
mp-23037,CsPbCl3,2.1892
mp-25173,MgPb2WO6,2.7568
mp-754636,ErBiO3,2.4634000000000005
mp-985442,AgAsSe,0.24490000000000034
mp-771733,Li3MgV8O16,0.28110000000000035
mp-2707,USb2,0.0
mp-1099156,YMg14FeO16,0.0
mp-18721,Mn2P2O7,3.513
mp-569830,Te2PdBr6,1.318
mp-1079630,Ba2TaInO6,3.9439
mp-2692,NbO,0.0
mp-1094454,YMg2,0.0
mp-776435,LaTiNO2,1.1275000000000004
mp-772955,Ba2LaCl7,4.1371
mp-562533,Dy2Cu(GeO3)4,0.0
mp-973174,NaAg3,0.0
mp-561959,CaCuH4(CO2)4,0.7091999999999999
mp-1019801,K8PO3,0.0
mp-868572,Li6TiFe5O12,1.5808999999999995
mp-1095718,YScZn2,0.0
mp-8948,CeAsPd,0.0
mp-1068685,U2PtC2,0.0
mp-566942,Zn3Fe2(SeO3)6,2.4788
mp-976147,PrEr3,0.0
mp-1097507,HfMgCu2,0.1341000000000001
mp-867804,ScPaRu2,0.0
mp-1094670,LiMg3,0.0
mp-767578,P4WO12,2.8551
mvc-10351,Sb3P3O13,0.9878
mp-686745,Ba3LiTi5Nb3O21,2.1934000000000005
mp-779664,AgGeO3,0.0
mp-771031,Lu2TiO5,3.2719
mp-8190,Tl2SiS3,2.3594
mvc-9179,MgBiMoO5,1.5276999999999998
mp-1031768,CaMg6BiO8,0.0
mp-752475,Rb2Ga2Ge3O10,2.1164
mp-697139,PHN2,4.732799999999999
mp-1076488,Sr6Ca2Fe3(CoO4)5,0.0
mp-10087,CeScSi,0.0
mp-685416,K24Zr18Se91,0.02899999999999997
mp-1078842,GdHg3,0.0
mp-850029,MnS2,0.14480000000000004
mp-505142,Np(SiPt)2,0.012600000000000831
mp-570560,Na3Hg2,0.0
mp-1019792,K2ZrSi2O7,4.472799999999999
mp-753088,Ce5Gd2O13,1.1899999999999995
mp-1760,UF5,0.3502
mp-28713,Na2Te2O5,2.9290000000000003
mp-5599,U5Re5Si9,0.0
mp-722941,CaZn2H12(BrO)6,3.5949
mp-761995,Li4Cr3Co(PO4)4,0.5533999999999999
mp-768740,Li2Bi5B3O13,2.1380000000000003
mp-1092318,TmInAu,0.0
mp-861632,LiMnPO4,3.6189
mp-1072956,MgF2,6.8537