mpid,formula,gap pbe
mp-1037466,Mg30NbZnO32,0.5438999999999998
mp-755752,Rb2Be2O3,2.2055
mp-997511,Co3(OF2)2,0.0
mp-1095458,Ce2Ni5B4,0.0
mp-1018057,HfBe,0.0
mp-743638,Li6Ti8Ni(PO5)8,2.9796
mp-29311,S3N2Cl,1.2724
mp-19428,K2RbTbV2O8,3.3999
mp-4013,Nd(SiRu)2,0.0
mp-21301,ScInNi2,0.0
mp-559383,RbLuP2O7,5.0946
mp-771303,LiMnB2O5,2.1107
mp-769810,Sr3WO6,3.5804
mp-28476,SrBiSe3,0.7978999999999998
mp-777894,LiVF3,2.5428
mp-1075620,Mg5Si9,0.0
mp-778858,Na6Mn3(PO4)4,2.1610000000000005
mp-868003,LaInAu2,0.0
mp-561603,Sr3Co2Cl2O5,0.0
mp-29179,SnCl2,3.1011
mp-31847,Li6Fe9(PO4)8,3.2592000000000003
mp-10089,Ba5Sb4,0.2633000000000001
mp-1074178,Mg4Si7,0.0
mp-1027850,Mg14TiCu,0.0
mp-4742,Ho(GePd)2,0.0
mp-1096137,ZrGaCu2,0.0
mp-1026466,Mg14SbMo,0.0
mp-123,Nd,0.0
mp-764647,Na8TiO6,2.0299
mp-555608,Na3Sc2(PO4)3,4.7095
mp-34330,MgAl2O4,4.6488000000000005
mp-777028,LiCo2(PO4)3,0.0
mp-540111,FePO4,2.7858
mp-6695,BaCdP2O7,3.5826
mp-1098890,Mg30TiCoO32,0.4253
mp-864971,MnSnRu2,0.0
mp-1028221,Mg14AlCd,0.0
mp-21076,EuRh3C,0.008300000000000196
mp-613785,Yb3Si2ClO8,0.0
mp-22466,SrIn4,0.0
mp-867174,SrLi2Pb,0.0
mp-989559,Cs2NaLiF6,0.0
mp-6986,Ta,0.0
mp-568466,LiInSn,0.0
mp-569674,La(CoAs)2,0.0
mp-850160,Li7(CoO3)2,0.4087000000000001
mp-740765,NaGa(H2N)4,1.2611
mvc-7618,ZnSnAs2O7,1.4058000000000002
mp-25214,NbO2,0.0
mp-862914,Er2ZnTc,0.0
mp-864241,AcFeO3,0.9887999999999996
mp-1022721,AlCu,0.0
mp-24659,UH3,0.1059000000000001
mp-1039217,MgCd2,0.0
mp-757150,Li5BiS4,1.5608999999999995
mp-556858,Al2P3H9(CO3)3,4.7339
mp-1035479,RbLiMg14O15,1.2721
mp-767631,Li3VF6,2.5271
mp-581831,Gd5CuBi3,0.0
mp-760402,TaRhO4,0.9714
mp-773602,MnCo3O8,0.888
mp-1094287,SrMg5,0.0
mp-1013547,Ca3P2,0.35139999999999993
mp-1097021,InCuS2,0.05480000000000018
mp-5704,Tl3AsS4,1.6893000000000002
mp-1099266,YMg6Ni,0.0
mp-775374,Li3MnV(PO4)3,0.4086000000000003
mp-976772,NiAg3,0.0
mp-20608,Tb2In,0.0025000000000003912
mp-625521,H3BrO,4.4259
mp-570456,Eu(CoAs)2,0.0
mp-697969,Rb2Cu3H2S3O14,0.2840000000000001
mp-24721,RbH,3.0311000000000003
mp-685078,K11B62,0.0
mp-625861,H7NO6,3.6449
mp-989607,LaOsN3,0.0
mp-1328,SrRh2,0.0
mp-1095229,YNbO4,3.6947
mp-1063989,TlCrSe2,0.0
mp-4360,NaCdF3,3.513
mp-34591,NbFeO4,2.2036
mp-715261,MnO2,0.3773
mp-780402,Sc2Ti2O7,2.8328
mp-865932,Li2CePb,0.0
mp-776881,LiFeF4,3.0524
mp-561979,CoMoO4,0.3567999999999998
mp-1093717,Sc2AlIn,0.16510000000000025
mp-1098813,YMg30CrO32,0.0
mp-1098804,Mg30ZnCrO32,1.6471999999999989
mp-31387,ErGaPd,0.01980000000000004
mp-24228,Na2CuH6C2O9,0.6966000000000001
mp-773058,Ba6Ti7(Sb3O14)3,0.0
mp-1077126,DySiNi4,0.0
mvc-8902,TiZnCu(PO4)3,0.0
mp-1034137,SrMg14TiO16,0.0
mp-39033,Sr(NdSe2)2,1.8977000000000004
mp-771491,Na3VSiBO7,1.5682000000000005
mp-1036220,LiMg14MnO16,0.7858999999999998
mp-981215,Zn3Co,0.0
mp-764051,Li5Ti2Mn3O10,1.1208999999999998
mp-767973,Li2Fe(SiO3)2,3.2217
mp-30157,Dy3S2Cl5,3.2556000000000003
mp-1093626,Cd2PtAu,0.0
mp-574651,CsSmMnSe3,0.504
mp-1069336,VPbO3,1.3521
mp-34472,Na(Nd2Se3)4,0.0
mp-677618,Ca6Al6Si3(HO12)2,0.38170000000000015
mp-18147,LiGaSiO4,4.0502
mp-761686,Na2BiO3,1.1827000000000003
mp-17401,Rb3Sn4Au,0.5795000000000003
mp-1099664,KNa7V8O24,0.22269999999999968
mp-1097307,Zr2PtAu,0.0
mp-1096422,TiAgAu2,0.0
mp-1966,Cu3As,0.0
mp-2868,Th11(Ru2C3)6,0.0
mp-540804,RbBi3S5,0.0
mp-764431,LiMn2F5,3.4517
mp-7441,KP,1.0307
mp-581834,CsNa5(WN3)2,1.7775
mp-31706,Li3Cr2(PO4)3,2.9795000000000003
mp-622542,Rb2CrF5,3.4324000000000003
mp-1079076,Hf2PbC,0.0
mp-695778,V(PO3)4,1.2795
mp-754841,Sc(CuO2)2,0.0
mp-774366,Li3MnFe2(BO3)3,2.713
mp-582245,Ce4Al23Ni6,0.0
mvc-3053,Ba2Mg2Mn3Tl2O10,0.0
mp-743961,MnP2H36C12N6(ClO)2,4.2192
mp-1020712,ZnSiN2,3.1948
mp-1098087,CsHfMg14O15,0.0
mp-763600,LiCo2C2O7,1.0033
mp-771098,Li2Fe3CoO8,0.0
mp-866538,Ca6Sn5S16,0.0
mp-1032516,Mg6TiFeO8,0.0
mp-762050,Li4Cu7(PO4)6,0.0
mp-696127,Li10Ge(PSe6)2,1.0491
mp-1074108,Mg4Si7,0.0
mp-558516,TmSeClO3,4.336799999999998
mp-22574,HgP14Pb,1.2948000000000004
mp-562066,BaCrF5,3.5888
mp-1099034,NaMn2P2O9,0.0
mvc-10146,ZnCo2P2O9,0.0
mp-766721,Li7NiOF7,3.1729000000000003
mp-753883,La4Bi2O9,2.5475000000000003
mp-776097,HfO2,4.1383
mp-13593,BaZnSnS4,2.3609999999999998
mp-604773,Mo8P9H56N12ClO56,2.7585
mp-1016222,LiMg3,0.0
mp-1095844,Nb2MoOs,0.004799999999999915
mp-754843,Na2Ti2O5,3.0583
mp-763184,Li3Cr3CoO8,0.5210999999999997
mp-558753,BiB2O4F,4.1885
mvc-2665,SrTiZn(PO4)2,0.0
mp-771758,Mn3Fe2Sb3O16,0.37849999999999984
mp-567618,Si5Pt12,0.0
mp-769725,Li4Ti3Cr3(CoO8)2,0.7281999999999997
mp-1008653,AgC,0.0
mp-780157,LiFeH12(SO7)2,2.3468
mp-560642,Na3SbP2O9,2.6288
mvc-14928,CrP2O7,0.0
mp-554110,CSNO3,3.7853
mp-2735,PaO,0.0
mp-776214,Hf2N2O,2.0381
mp-1039936,NaCeMg30O32,0.5315999999999992
mp-1022503,Mg6ZrW,0.0
mp-20125,GdSi2,0.013999999999999345
mp-1098861,Mg30ZnCuO32,0.0
mvc-11574,CaSi2NiO6,4.4392
mp-853170,Li2MnO2F,1.0629
mp-763897,Li6CoOF6,0.0
mp-973434,Hf2IrRu,0.0
mp-756214,YAlO3,4.9586000000000015
mp-1073822,MgSi,0.0
mvc-15452,YMoO3,0.0
mp-761340,LiVPO4,2.3663000000000003
mp-1038355,HfMg30SbO32,0.016299999999999315
mp-779698,ZnTe2O5,3.0118
mp-1080260,CeSe2,0.7621
mp-567969,HoB2Rh2C,0.0
mp-1076273,Sr2Ca2Co3CuO10,0.0
mp-761651,Li2Cr(CoO3)2,0.0
mp-532541,CsBaIn2(PO4)3,4.0908
mp-1028544,TeMoWSe3,0.0
mp-973865,PaAl3,0.0
mp-569218,Ba3Al3Ga2,0.0
mp-12411,Li2ZnGe,0.0
mp-28355,Na4Ge2Se5,1.6662
mp-1020024,Li6B4O9,4.8958
mp-585244,LiFePO4,3.5133
mp-626486,H4SO5,5.2574
mp-1032824,Mg6FeSnO8,0.0
mp-570530,Cs(BCl)6,3.2599
mp-684020,Ce12C6I17,0.0
mp-21030,Ti3Sn,0.0
mp-29167,Sr(NiP)2,0.0
mp-773229,Mn3FeO8,0.0
mp-864787,NpCdPt2,0.0
mp-1094622,MgGa2,0.0
mp-621092,Tl2Pt(CN)4,2.5584
mp-381,SiRu,0.0
mp-5354,Er3(Si3Ru)4,0.0
mvc-10530,MgTi2Be3(SiO4)3,0.003099999999999881
mp-1432,Be2B,0.0
mp-767427,LiFe2(BO3)2,1.4577000000000002
mp-13350,RbUAgS3,0.0
mp-14558,Ba2Mg(PO4)2,4.696999999999999
mp-755977,CaPbI4,2.7905
mp-7297,Cs2SnF6,5.3373
mp-1018718,HfTa2N3,0.0
mp-505713,CsTmZnSe3,2.1716
mp-1097053,Li2Zr2O5,3.8364
mp-985475,Fe3Mo,0.0
mp-21045,DyAgGe,0.0
mp-1077196,CoO2,0.0
mp-761554,Co2NiO6,1.1047000000000002
mp-1037229,YMg30CO32,0.7499000000000002
mp-773166,Li5Cu3(NiO5)2,0.0
mp-1086677,Na2SnO6,0.0
mp-12378,LaSnRh,0.0
mp-745166,Sr2Fe2H2OF10,3.5417
mp-21271,PrMnGe,0.0
mp-12983,ScSb,0.0
mp-30021,K5Sb4,0.0
mp-625474,H2SO4,5.5461
mp-1028057,BaYMg14,0.0
mp-705563,Co29O40,0.26370000000000005
mvc-16358,Ca5(CoN2)2,0.35029999999999983
mp-6633,NaCSN,4.1761
mp-780282,Cd(BO2)2,2.7302
mp-704237,Fe(PO3)4,0.010599999999999945
mp-579811,Rb2U(MoO5)2,0.0
mp-555596,K6Si2S6O,3.1497
mp-767336,Li3MnPCO7,4.108499999999999
mp-1032845,NaYMg6O8,3.7105
mp-5670,LiTi2O4,0.0
mp-773607,LiTiNiO4,0.0
mp-862680,DyMgAg2,0.0
mp-763984,Na3VO3,0.18710000000000004
mp-633543,Li2CrPO4F,2.8006
mp-629046,LaMnO3,0.0
mp-10226,NaYS2,2.2807
mp-17709,Na2ZnSiO4,3.1365
mp-780111,Li2Mn3(BO3)3,0.0
mp-651786,Ca5MnSi9(Pb3O11)3,2.8158
mp-565386,Y2(MoO4)3,3.9229
mp-561202,K6NbAs3O,1.0121000000000002
mp-772357,Na2VCSO7,2.8608
mp-1093853,Sc2ZnCd,0.0
mp-33940,Mg2PtO4,1.1505
mp-550254,Cs2Co(NO3)4,2.8266
mp-25071,MoPb2O5,2.9254
mp-1028141,Mg14MnCu,0.0
mp-774270,Li6V3P8O29,1.1338
mp-1080126,LuCuSb2,0.0
mp-1074863,Mg7Si4,0.0
mp-779837,Hf2N2O,2.0789
mp-1097289,Hf2MgRe,0.0
mvc-1328,BaFe4O7,1.6662
mp-720222,Na3CaAl3Si3SO16,3.7823
mp-776857,Li4Ti3Nb2Cr3O16,0.0
mp-851120,KNa2Li3Zr2(Si2O5)6,0.0
mp-17757,Sr5Ge3,0.0
mp-541774,BiAuBr6,1.1638000000000002
mp-853353,Li4Fe3Sn2Sb3O16,0.0
mp-864836,Dy2Ni12P7,0.0
mp-558320,K3U3Si2O13,0.5497000000000005
mp-556233,KAs4ClO6,3.0465
mp-684052,LiSn6P7O24,2.5803000000000003
mp-24969,Fe2GeO4,1.5471
mp-1076247,Ba6Sr2CoCu7O24,0.0
mp-736225,Sr2Re4H16C3(N2O7)3,3.2622
mp-867157,SmCdHg2,0.0
mp-626547,Ti3H2O7,2.8908
mp-867590,LiCu2F5,0.4065
mp-755263,CrS2,0.0
mp-998415,CsSeBr3,0.0
mp-770708,Na3SiBSbO7,0.0
mp-675779,Li2Mo3S4,1.4366000000000003
mp-695505,K2LiNb6(PO8)3,2.2981
mp-571165,Dy2Fe14C,0.0
mvc-10457,Mg(WO2)2,0.6503000000000005
mp-12641,Ba2HoNbO6,2.8516
mp-770271,BaLaCl5,4.1962
mp-1095710,ZrScRh2,0.0
mp-15095,Ca3Si2SnO9,3.4384
mp-505618,Ba2CuWO6,0.0
mp-7446,Rb2S3,1.3218
mp-19175,MnSe2O5,2.5294000000000003
mp-1080079,U(AlAu)2,0.0
mp-19546,Zr2Mo(PO6)2,3.2064000000000004
mp-763857,Li2VCr(P2O7)2,2.133
mp-1078249,Co(RhSe2)2,0.0
mp-782667,Li2MnSiO4,2.7851000000000004
mp-769480,Y4Ga2O9,3.427
mp-1075371,Mg3Si4,0.0
mp-743841,MnPH6NO5,3.0639000000000003
mp-28917,Ba2Ti13O22,0.0
mp-698132,Al2Si2H4O9,4.9007000000000005
mp-864941,MgSc2,0.0
mp-24654,KZnP2H5O9,4.4686
mp-772122,Li3V4CuO12,1.1290000000000002
mp-504997,NdCu(WO4)2,1.5763000000000005
mp-504708,CsCoCl3,0.0
mp-1099763,Ba2Sr2Co(CuO4)3,0.0
mp-690765,MgH2(SO4)2,1.8378
mp-763415,Fe8SiO12,0.4454000000000001
mp-754185,Y2MgNi2,0.0
mp-19037,K2W2O7,2.4572000000000003
mp-868284,LiMnPO4,3.5553000000000003
mp-765185,LiV2F7,2.6577
mp-17637,USO6,1.9501
mp-25788,V5(PbO6)2,1.889
mp-779986,CrO3,1.2356
mp-758120,Ba13Bi11O36,0.0
mp-30167,Rb3Os2Br9,0.4873000000000001
mp-761608,Li2CoNiO4,0.0
mp-18752,BaYb2NiO5,0.0573999999999999
mp-26245,Li3Bi2P5O18,0.18110000000000004
mp-1097360,Ba2SbI,0.8292999999999999
mp-31620,Co2P5O16,0.08760000000000001
mp-715516,Fe2O3,1.9012
mp-18377,ZnS,2.0316
mp-12866,SrSnO3,1.6118
mp-763229,VOF,0.9420999999999996
mp-1029015,Te2MoWSeS,0.004700000000000149
mp-1021164,CeHfMg6,0.0
mp-15113,Na2Si3O7,4.6833
mp-1095296,Dy4Te3S4,1.8395
mp-27505,Fe3Sn2,0.019299999999999432
mp-769745,Li4Fe5Sn3O16,0.0
mp-1021396,Mg6SnMo,0.0
mp-695929,Cs3B6H12S4Br,4.9166
mp-763166,FeOF,0.3843999999999999
mp-669436,ZrAsPd,0.0
mp-30610,Er2Pt,0.0
mp-676483,NaLiZnP2O7,4.2378
mvc-11965,MgMn2O5,0.18659999999999988
mp-540388,FeP2O7,0.0061999999999999824
mp-504341,Sb(PO3)4,0.0
mp-616637,CeVO4,0.3341000000000003
mp-762659,Li4Mn3Nb2Sn3O16,0.9693000000000004
mp-867811,TaMnRu2,0.0
mp-11799,PrNi,0.0
mp-999088,ThCoC2,0.0
mp-20546,Ba2In2O5,0.919
mp-10811,NaSr4(BN2)3,1.9682
mp-1620,Si2W,0.0
mp-765484,MnH6SO6,4.6156
mp-556481,SrU(SeO4)2,1.9684
mp-1097369,Ta2ZnRe,0.0
mp-865099,NaLaHg2,0.0
mp-1060098,SmS,0.0
mp-996952,LaAuO2,2.7834000000000003
mp-775614,Na2MnPCO7,0.6119000000000001
mp-1071980,SrN2,0.0
mp-780259,Li5LaO4,3.3999
mp-781179,Fe10O9F11,0.0
mp-568477,Rb2SbBr6,0.0
mp-573340,Nb2Se17Cl12,1.3224
mp-972954,MgCd2,0.0
mp-31012,K2(NbBr3)3,1.0937
mp-542328,Ce5Ga3,0.0
mp-1095733,TiBe2Rh,0.0
mp-3368,LiNb3O8,3.0171
mp-1093776,Mg2ZnCu,0.0
mp-567091,W18O49,0.0
mp-1025856,Te2MoW2(SeS)2,0.0
mp-767970,Li3Mn4(PO4)6,0.4279
mp-504678,CoSeO4,1.6888999999999998
mp-1025274,Cs2NpO4,0.3134999999999999
mp-23493,Ce(IO3)4,1.4876
mp-1027898,LiMg14Fe,0.0
mp-625572,H5BrO2,4.1623
mp-1076797,La7SmMn6(FeO10)2,0.14200000000000035
mp-1771,NO2,2.6914
mp-567,La3S4,0.0
mp-1008802,ReC2,0.0
mp-866189,CeCd2,0.0
mp-971982,Tm2ZnCu,0.0
mp-696114,CoCl2,0.00199999999999978
mp-761369,Li13Ni15O28,0.0
mp-775863,Zr2N2O,1.6522999999999994
mp-20369,CeIn3,0.016199999999999548
mp-4564,Ba4Nb14O23,0.0
mp-720112,Sr5Al10(Si7O24)2,4.2338000000000005
mp-865982,TmCdPd2,0.0
mp-775762,AgPO3,2.1168
mp-705864,Mg2Fe2O5,0.3287
mp-705729,Mn9(Cu3O10)2,0.0
mp-10889,La3Al,0.0
mp-1094345,MgTi,0.0
mp-765121,LiMn3O5F,0.0
mp-17513,Ba4Tb2Cd3S10,2.1033000000000004
mp-755253,LiZrO2,0.0
mp-556013,Na2Be(SiO3)2,5.055
mp-1097308,Ti2GaW,0.0
mp-861900,LiGaAu2,0.0
mp-865288,TmTlRh2,0.0
mvc-3765,YCoO3,0.0
mp-775377,Li3V6O13,0.2241
mp-5015,UAlRh,0.001100000000000989
mvc-7907,Mg3Ta6(FeO6)4,2.6546
mp-555835,Gd3Sc2(GaO4)3,0.4925000000000002
mp-1099624,BaSr7Ti5Mn3O24,0.0
mp-22292,EuCuSb,0.0
mp-13093,La3Ni2Sn7,0.006299999999999528
mp-30214,SbIF10,4.0683
mp-686458,Rb11Al14Si10(AgO16)3,0.032700000000000014
mp-28102,Ba3Te4O11,3.2309
mp-555105,Ta9Pb12O20F29,2.4923
mp-21991,Rh17S15,0.0
mp-1021679,Mg6VCd,0.0
mvc-4982,Mg2TaWO6,2.5277000000000003
mp-775327,Li2MnV3O8,1.5656000000000003
mp-1094223,MgSn2,0.0
mp-10456,HfSiPt,0.0
mp-1029763,ZnSiN2,0.4885999999999999
mp-775543,SnPHO5,3.407
mp-850259,Mn6OF11,0.0
mp-777454,V5FeO12,0.0
mp-14712,Li7PN4,3.4744
mp-1027738,TeMoS,0.0
mp-765005,Li2Co(SiO3)2,2.8871
mp-764039,LiCo7O7F,0.0
mp-850151,LiVP3HO10,2.1044
mp-866016,AcBiAu2,0.0
mp-707120,BaP2(HO4)2,0.4458
mp-942702,LiMnSO4F,3.9043
mp-1019323,Th2HN3,1.4164000000000003
mp-756888,La2(SiO3)3,4.3074
mp-14643,Er2Te3,0.05210000000000026
mp-720658,Cs3Mg3In(PO3)12,4.665699999999998
mp-649479,Ca5(InSb3)2,0.2282000000000001
mp-1096907,CrN2,0.0
mp-1029306,Te4MoW3(SeS)2,0.0
mp-1093876,CaTlPd2,0.0
mp-560237,Cr3AgO8,1.1888999999999998
mp-556870,MgAl2O4,4.8621
mp-761783,Li5Co2Cu3O10,0.0
mp-2778,HoAg,0.27349999999999985
mp-775563,Li5Mn5(SeO3)8,0.7279
mp-1098485,NaMg30WO32,3.1127
mp-765278,Li5Cr3FeO8,2.3598
mp-1029139,Te4MoW3S4,0.0
mp-653631,BaNa4Cu3F12,0.4248
mp-707337,K3H3Pd,1.7674
mp-743637,CoH12SO10,2.6673
mp-20169,Ce2O3,0.0014999999999996128
mp-763624,Li2Fe(SiO3)2,2.8795
mp-1008755,SrB2,0.0
mp-1013910,LiFe2P2O9,0.008000000000000007
mp-13401,Yb(CuGe)2,0.0
mp-560502,Ba2CuTeO6,0.17870000000000008
mp-558564,SiO2,5.5113
mp-640533,Ba4NaMn2O9,0.0
mp-555999,Np(IO3)4,0.22389999999999954
mp-558248,PrTa3O9,3.1746000000000003
mp-11698,Tb,0.0
mp-1067154,KNO2,2.535
mp-851059,Li4V3P8O29,1.0821999999999998
mp-1098939,Mg30SiNiO32,0.0
mp-770579,LaMgI5,2.5974
mp-977561,LiTaIr2,0.0
mp-4666,CdSiP2,1.4259000000000004
mp-306,B2O3,6.3017
mp-650928,K3Nb7O19,2.1043000000000003
mp-1040385,KNaMg30O31,2.3942
mvc-706,YV(WO4)2,1.6793999999999998
mp-18341,ErPtF7,2.0878
mp-999200,Si,1.1826
mp-559390,CaAl2O4,4.1903000000000015
mvc-15495,Mg2Cr3O8,0.16400000000000015
mp-1009826,TaCo,0.0
mp-995122,NbS2,0.0
mp-6491,Na2ZnP2O7,4.0485
mp-1096335,LiGe2Pt,0.13260000000000005
mp-21221,Pr(FeGe)2,0.003499999999999837
mp-999266,ReN,0.0
mp-29361,K2U2O7,1.7071
mvc-11797,Ca(CuO2)2,0.3517999999999999
mp-40373,In14Ga3Pt2O8F15,1.9925
mp-1093770,MnGaPd2,0.0
mp-1099268,YMg6Ga,0.0
mp-974457,Ru3I,0.0
mp-755511,Y2Hg2O5,1.6972
mp-761659,Li4Cu3Ni(PO4)4,0.0
mp-761615,Li2Ti(CoO3)2,0.9107000000000004
mp-28094,RbDy2Cl7,4.5280000000000005
mp-571314,K2CoCl4,0.7942
mvc-9037,LaZnFeCuO6,0.0021999999999993136
mp-642304,Ba(Ge3Pt)4,0.0
mp-695278,Ba3La9Mg7Nb5O36,2.9983000000000004
mp-862838,PmAlCu2,0.0
mp-568306,Mg5Si6,0.0
mp-862885,CaPmRh2,0.0
mp-554592,CsCS(OF)3,5.5996
mp-867474,Li2EuSn,0.0
mp-771983,Li3FeNi3O8,0.0
mp-3249,La4Ti3O12,2.9902
mp-771831,Sr2LaCl7,3.6174
mp-559030,KB(CO2)4,3.4883
mp-770050,CdCoO3,0.13310000000000022
mp-773214,Gd2W4O15,2.8721
mp-771476,Na3MnAsCO7,2.3828
mp-558307,PW5O17,0.0
mp-581868,NaY(IO3)4,3.3072000000000004
mp-14790,Ge(Te2As)2,0.3594999999999997
mp-23569,AsSe6IF6,1.5603
mp-908376,LaNiO3,0.0
mvc-12320,Y2Ti3O9,2.4471
mp-27422,CsBiF6,2.8234
mp-11705,Dy2Fe2Si2C,0.0057999999999998044
mp-568371,Tm(SiRu)2,0.0
mp-1096203,ZrPdAu2,0.2553000000000001
mp-30721,Hg5Pd2,0.0
mp-642646,BaP2(HO)4,5.2848
mp-10419,Na4ReN3,2.4327
mp-1076977,DyAlGe,0.0
mp-672256,Y5Ga3,0.0
mp-762965,Li3V3P8O29,0.5884
mp-608431,Os3C9S2O9,2.5069
mp-1100931,V2Bi4O11,2.3997
mp-1076079,Sr5Ca3MnFe7O24,0.0
mvc-5744,ReWO6,0.0
mp-32543,H2WO4,1.4492
mp-6539,RbTiPO5,3.0134
mp-775684,Li4Cr3Sn3(TeO8)2,1.1035000000000004
mvc-2461,CaCuO2,0.03200000000000003
mp-772228,CdP4O11,4.3777
mp-778259,PrHfO4,0.1934
mp-764564,Li2Fe2OF4,2.4931
mp-3583,U2AsN2,0.0
mp-777556,LiVF4,2.4551
mvc-14589,CrO2,0.6214999999999999
mp-561304,KAg3As2S5,1.6822999999999997
mp-1096640,MgZnCu2,0.2603999999999997
mp-867370,Pr3Sn5Au6,0.0
mp-974799,Rb3Sr,0.0
mp-610787,Gd(CrSi)2,0.0
mp-4405,Rb3AuO,0.2056
mp-865791,CrSiRu2,0.0
mp-761353,P4WO13,1.9875
mp-770736,Na4Cr2As(CO4)4,0.012399999999999968
mp-3417,Ca(BO2)2,5.1925
mp-505043,Eu3Sb5O12,0.024499999999999744
mvc-11109,Mn2Nb2ZnO9,0.6508999999999998
mp-4911,Th(CuGe)2,0.0
mp-769646,Li2TiCo2O5,1.5688
mp-8475,ErCoC,0.0
mp-11464,MgHg2,0.0
mp-849258,Li3Mn4(BO3)4,0.0
mp-989593,LaTcN3,0.0
mp-1063678,H3S,0.0
mp-763951,VO2F,1.1068
mp-557146,TiAs2O7,2.5598
mp-770618,MgMnO3,1.93
mp-558224,Dy2(TeO3)3,3.2255
mp-21848,F2,0.02059999999999995
mp-31530,Co10Ge3O16,0.0343
mp-8961,Ba3NaTaO6,3.4045
mp-23220,YbCl2,5.5411
mp-1776,UN2,0.6911000000000005
mp-707923,HOs6C18S2O19,0.1725
mp-767904,Li9Mn14O32,0.0
mp-1033116,Mg6AlVO8,0.0
mp-17350,La2TeO6,2.9624
mp-1040232,RbLiMg30O31,2.2704
mp-565849,TbCu(WO4)2,1.2094999999999994
mp-763739,Li3Fe2(SiO4)2,1.1403
mvc-11561,MnO2,1.6861
mp-19455,MnMoO4,1.4583
mp-540550,NaH2ClO5,5.4875
mp-763718,Li2Mn(SiO3)2,2.76
mp-761752,LiVCoO4,1.9367
mp-690607,K2BaNi(NO2)6,1.6928999999999998
mp-849572,Li2Fe3OF6,2.5329
mp-1096392,HfVAu2,0.0
mp-775656,Li4Mn3Nb2V3O16,0.5272000000000001
mp-220,ThNi2,0.0
mp-532424,KAl11O17,4.602399999999999
mp-861189,LiCuS,0.7925999999999993
mp-1078191,Ba2TeO,1.7805
mp-773235,Li3Fe3NiO8,0.9040000000000004
mp-849327,Li2Cu(PO3)3,1.1791999999999998
mp-767604,Li12Nb14ZnO42,3.2580000000000005
mp-25617,V3H4NO8,2.1322
mp-18743,CaMnP2O7,4.3248
mp-566266,Nd2Mo(SeO5)2,3.3146000000000004
mp-1095858,VTc2Mo,0.0
mp-764237,LiVOF3,1.6839
mp-687229,Li2Mo(PO3)8,0.06990000000000007
mp-707734,AsHPb4(ClO)4,3.1812
mp-20393,Sr2InPt2,0.0
mp-4338,Cr2CdS4,0.5884000000000005
mvc-1467,YCo3Se2ClO8,1.6126
mp-1022814,YMg6V,0.0
mp-863878,VF4,1.9189
mp-34439,Tb10Ti6O27,2.6133
mp-2142,Te2Os,0.0
mp-777315,Li2Mn3(BO3)3,0.0
mp-680120,CdI2,2.355
mp-1023927,Te2MoWSe2,0.7319999999999998
mvc-8404,CaGe2WO6,2.147
mp-1062306,MnSiNi,0.0
mp-638685,CsEuBr3,0.9373999999999998
mp-782660,LiMnP3H8O13,3.7556
mp-505786,CeH14Cl3O7,0.000399999999999956
mp-1076177,Sr6Ca2Mn3(FeO4)5,0.0
mp-11232,YAl3,0.0
mp-850083,Fe4S5,0.002700000000000008
mvc-5692,Mg(MoO2)2,2.886
mp-1027512,Te2Mo3W(Se2S)2,0.0
mvc-13193,ZnCoP2O7,2.9504
mp-980150,Th2ZnTc,0.0
mp-638137,CSeN,2.1805
mp-555110,AsH5C2(OF3)2,5.2271
mp-1001602,B12W,0.0
mp-17913,Tb2SiSeO4,2.5839
mp-772434,Li4CrO4,1.7266
mp-21013,Cs2LiFe(CN)6,3.5404
mp-545619,HgO,0.0
mp-555704,ReO2F3,3.335
mp-744434,YNiH3SO7,4.1385000000000005
mp-772920,Li8Ti2O7,0.7655000000000003
mp-672313,Sc6Pb5,0.0
mp-1094958,HfMg3,0.0
mp-559832,Hg3(SBr)2,1.609
mp-676724,Ca(Al3Te5)2,0.8812999999999995
mp-773674,Li4Ti3V3(FeO8)2,1.1950000000000005
mp-989570,Cs2CaSnCl6,3.6131
mp-16735,CrInCo2,0.0024999999999995018
mp-769735,Li3MnPCO7,3.5753
mp-772278,Li2Ni2SbO6,0.0
mp-755685,SmYO3,4.2039
mp-865223,LuMgCd2,0.0
mp-1018126,GaBi,0.0
mp-569810,Sr2BIN2,2.5325999999999995
mp-769262,K5YO4,2.2966
mp-617119,MnFeBiO5,0.0
mp-758089,Li2Ti3O6,0.0
mp-974000,Lu2Fe17C3,0.0
mp-698623,K4W11O35,0.0
mp-766288,Ba2CaI6,3.4939000000000004
mp-705127,Mo2P3Pb2BrO15,0.24750000000000005
mp-560082,Ho2Ge2O7,3.7385
mp-677516,Rb5NO5,0.0
mp-1094708,CaMg3,0.0
mp-542804,La5NiPb3,0.0
mp-1096657,Y2RhAu,0.0
mp-11524,TlNi,0.0
mp-763705,Zn2Ni3O5,1.5657999999999994
mp-680345,Tl2Br3,1.1457
mp-1028260,NaMg14Sn,0.0
mp-720328,KMg8Al17Si19O72,3.7898
mp-780815,Li2Fe4O3F8,1.9601
mp-762285,Li3V7O12,1.0818999999999996
mp-28623,Li4Ge5O12,2.9262000000000006
mp-1095587,LaGaPt,0.0
mvc-5434,Zn(CuO2)2,0.0
mp-675022,CsPbCl3,2.3102
mp-18504,Ca3(GeAs2)2,0.6160999999999999
mp-2172,AlAs,1.5036999999999998
mp-3569,Nd(Sb3Os)4,0.0
mp-1022729,Na2H6Ir,0.0
mp-540714,NaH8SNO6,4.9987
mvc-6603,CuMo2O7,0.2611
mp-22329,NaNd2OsO6,0.6598999999999999
mp-864950,MnAlIr2,0.0
mp-861962,BaSb2F12,4.4413
mp-779737,Ho2P4O13,5.4324
mp-34913,Nd5ErS8,0.0
mp-780038,Mn2O3F,0.0
mp-284,AlCo,0.03250000000000064
mp-559724,Ta4S9Br8,1.2976
mp-4978,Ti2AlN,0.0
mp-7610,Li2CaSiO4,5.189699999999998
mp-9205,KSeO2F,3.3214
mp-974368,Rh3Pb,0.0
mp-11313,ZrCd3,0.0
mp-562854,CsNb2BiO7,2.4814000000000003
mp-972591,Sm(Mg4Al3)4,0.0
mp-754306,Ce4SmO9,2.1496000000000004
mp-767481,P4WO13,2.3114
mp-772469,Li6V3P8O29,0.4661000000000002
mp-510367,Fe2P2O7,3.919000000000002
mp-2011,UP,0.002100000000000436
mvc-8698,ZnNiBiP2O9,3.2430000000000003
mp-1036182,RbMg14MnO16,0.22999999999999954
mp-761723,Li2Si4Ni4O13,3.4441
mp-761482,Li2FePO5,2.5086
mp-542289,HgNO3,2.5687
mp-1036049,YMg14NiO16,1.1792999999999996
mp-555915,S,2.5404
mp-558370,Ca3TiBe2Si2(As3O10)2,2.6233000000000004
mp-3660,LiB3O5,6.3532
mp-1032180,KMg6CoO8,0.0
mp-973498,In3Au,0.0
mp-672285,CuCSN,2.2647
mp-32787,Ho2S3,1.9342000000000008
mp-863704,Pm2MgTl,0.0
mp-24341,CsBeH3,3.2171000000000003
mp-8758,SmRhC2,0.0
mp-15793,LiTbSe2,1.5002999999999995
mp-998230,LiSnCl3,3.9836
mp-3471,La2Ni5B4,0.0
mp-571225,CdI2,2.4015000000000004
mp-10876,Ca3Al7Cu2,0.05590000000000028
mp-10225,NaVS2,0.0
mp-770773,Rb2S2O7,4.9853
mp-31509,BaIn,0.0
mp-23412,SbCl4F,1.3762
mp-983388,K3Hg,0.0
mp-1025906,Mo3(Se2S)2,0.7662
mvc-13374,VS2,0.0
mp-779001,Sr4Hf3O10,4.0727
mp-669509,Gd2S3,0.7560000000000002