mpid,formula,gap pbe
mp-22691,InSe,1.7788
mp-1095527,GdGeRh,0.0
mp-20936,Ba2PrCu3O7,0.0
mp-778772,Li3Cu3(PO4)2,0.7242999999999995
mp-555474,Sr(ClO2)2,2.3952
mp-1288,AgO,0.031099999999999905
mp-1029952,Te3MoWS,0.0
mp-770172,Li4MnCrO6,1.0387
mp-6152,La2ZnIrO6,9.999999999976694e-05
mp-23252,Ce4Bi3,0.0043999999999995145
mp-1096648,LaHg2Pb,0.0
mp-1029660,Ca4ZrN4,1.2352
mp-760179,Cu3(OF)2,0.0
mp-1094099,Sr10Fe10O27,0.0
mp-1076548,Ca2Cu2O5,0.0
mp-643579,SbH3OF6,4.6548
mp-680568,Ti6O11,0.0
mp-25722,Mg2VBiO6,3.3647
mp-767730,Li12VFe3P4(CO7)4,2.6420000000000003
mp-1017247,HfMg6B,0.0
mp-778630,LiV3P3(HO6)2,2.4616
mp-558104,NaMn3F10,1.4189
mp-1026575,Mg14CdSn,0.0
mp-703668,FeH4S2NO8,2.3185
mp-972071,V3Mo,0.0
mp-1017354,Mg6CrSi,0.0
mp-770756,Li3SiSnBO7,3.5191
mp-973486,LuVO3,0.0
mp-753130,Li4CuF7,0.1221000000000001
mp-571074,Y5Mg16Cu5,0.0
mp-1037305,Mg30FeNiO32,1.2237999999999998
mp-776859,Li4Nb2Co3Sb3O16,0.0
mp-768585,HoTa3O9,3.258
mp-720670,Na10Zn7Sn7H24(S13O6)2,1.9307
mp-644389,Li2H2Pd,0.0
mp-1093639,LaMg2Cd,0.0
mp-754474,USiS,0.0
mp-762939,Li5V5O12,0.4782000000000002
mp-689957,Li2Mn(PO3)4,3.8816000000000006
mp-763669,Li4Ti2Mn3O10,0.8577999999999997
mvc-3211,Sr2FeCuSO3,0.6777999999999995
mp-18773,WO3,1.3319
mp-568350,Rb2ZnCl4,4.5226
mp-1021356,Mg6TiMo,0.0
mp-1034162,RbMg14CO16,0.0
mp-1072507,TiNCl,0.5613000000000001
mp-772802,K2TmPCO7,4.4497
mp-764593,Li3Fe3OF7,3.1024000000000003
mp-775755,Li4Ti3Ni3(SbO8)2,1.0106000000000002
mp-777186,Na2CoO3,0.7799
mp-1075933,SmAgO3,0.0
mp-768003,Na5Mn2P2(CO7)2,0.0
mp-21272,ErNiSb,0.2741000000000007
mp-866313,Ba3In(BO3)3,3.4878
mp-1031097,RbCeMg6O8,0.0
mp-756554,Li4Cu3TeO8,0.0
mp-754203,SmErO3,4.6071
mp-24361,CaP2(HO2)4,5.6496999999999975
mvc-3128,TiZnPO5,0.0
mp-1018900,PrCuPb,0.0
mp-1076119,La2Ag2O5,0.0
mp-780598,Mn3Cr3(SbO8)2,0.15660000000000007
mp-25012,MnSn(BO3)2,2.5552
mvc-7191,BaYCuSnO5,0.0
mp-976331,LiLuO3,0.0
mp-866813,Ca2SnS4,2.0265
mp-10896,Y(MnAl2)4,0.0
mp-607853,Na8In6Au11,0.0
mp-12900,HoSi,0.0
mp-776749,Li2V3CuO8,0.0
mp-761559,LiFeSiO4,2.6029
mp-1040077,LiMg30BO31,1.995
mp-555433,NaYbCO3F2,0.6712
mp-555982,Si2Ge3P6O25,4.0974
mp-8719,K2MnTe2,0.8929
mp-1079573,Pr2Fe2S2O3,1.6445999999999996
mp-672254,CaPdPb,0.0
mp-17769,YSO4F,5.8491
mp-17785,KNa2GaO3,2.5055
mp-650518,Ca4YFe5O13,1.0376000000000003
mp-764698,LiVF3,2.5687999999999995
mp-542812,GaTe,1.0066000000000002
mp-7148,K2SrTa2O7,2.0693
mp-867213,Er2OsPd,0.0
mp-707782,K6Zr3H8(OF)12,3.3586
mp-983581,Er2PdRh,0.0
mp-6267,LaSiBO5,4.1759
mp-744430,Mn5P4(HO2)10,3.1874
mp-17429,KHfPdF7,0.8355999999999999
mp-8891,K2Zr(BO3)2,3.4092
mp-776790,BaLi4NiO4,2.6893
mp-510697,Zn5B3Rh7,0.0
mp-764519,LiFe2(BO3)2,1.5639
mp-542843,MgB2P2H8O13,5.5984
mvc-13211,CaV4(CuO4)3,0.0
mp-572124,SrTi2O5,1.9511
mp-542501,Rb2U3(TeO7)2,1.8359
mp-23497,Li2ZnI4,3.1982
mp-20264,Tb(FeGe)2,0.006599999999999717
mp-11992,LiLa2IrO6,0.0
mp-972828,Cu3Si,0.0
mp-2348,Zr2Au,0.002299999999999969
mp-708969,P2H24PdC12(BrN3)2,1.7182000000000002
mp-1076614,Sr3Ca5Fe5Co3O20,0.0
mp-704251,LiFePO4,3.5691000000000006
mp-762519,Li4Fe7(PO4)6,3.059400000000001
mp-1046,NbSn2,0.0
mp-1030504,MoW3Se8,1.4655
mp-2340,Na2O2,1.7361
mvc-11047,MnS2,0.0
mp-581655,Pr13Cd58,0.0
mp-561981,CoGeO3,1.4632999999999994
mp-1094297,Sr3Mg,0.0
mp-557961,SbCNCl4O,2.1439
mp-1093804,LiAgAu2,1.7081
mp-1094424,Y2Mg,0.0
mp-35659,HgPbF6,1.3237
mp-582084,CdI2,2.3746
mp-29898,Tl2Au4S3,1.1304999999999996
mp-974416,Re3W,0.0
mp-5063,YAl3Ni2,0.0
mp-27736,Re2P5,0.4830999999999994
mp-600257,GaH12C4NCl3,3.9312
mp-767058,Li2Cr(Si2O5)3,1.2948000000000002
mp-977128,NaRu3,0.0
mp-504315,LiV6P7O24,2.5743
mp-12017,CeAl4Ge2Au,0.0
mp-763009,FeOF,1.8912
mp-1028400,Mg14CoMo,0.0
mp-30501,Ti2Cd,0.0
mp-685632,Ba7U7O24,0.0
mp-771652,Ti2Sb2O7,2.0277000000000003
mp-1079546,Nb2GaC,0.0
mp-3764,Te3P2O11,3.3954
mp-649178,Na2Li3FeO4,3.0332
mp-554909,Ba3MgIr2O9,0.0
mp-740722,Na3GeH11O9,3.8724
mp-859784,LiV2O3F,1.2512
mp-777666,Li2V3CrO8,1.1225
mp-566107,K6U5V2O23,1.766
mp-1076759,LaSmCo2O5,0.5165000000000006
mp-18498,Sr3YRhO6,2.1512
mp-772669,FeCo(PO4)2,0.1211
mp-867897,ScTaRu2,0.0
mp-707992,DyP2H9O10,2.2486
mp-1080493,Y3Au2,0.0
mp-133,Sb,0.0
mp-566675,Fe5Cu2(PO4)6,0.4139999999999997
mp-23737,KMgH3,2.458
mp-1075020,Mg3Si4,0.0
mp-850077,LiMn2(BO3)2,0.3031000000000001
mp-758073,Re6Pb6O19,0.0
mp-22061,In(TeMo)3,0.0
mp-754163,BeClO,0.0
mp-769999,Li4Cr3NiO8,0.0
mp-28782,Na3PS4,2.2814000000000005
mp-8911,CuAgS,0.2572000000000001
mp-1078283,Ce2Fe2Se2O3,0.0
mp-1017356,Mg6SiC,0.0
mp-569247,Zr(FeSi)2,0.0
mp-28,Ce,0.0
mp-565945,Fe2PClO4,3.7912
mp-1079944,LuCuAs2,0.0
mp-25559,MnVO4,0.18819999999999992
mp-6013,KTa(CuSe2)2,1.6646
mp-1094429,MgZn,0.0
mp-977409,NbTc2Ge,0.0
mp-741593,Ba4Y2Cu4W2O17,0.015200000000000102
mp-30179,Mn6Al31Ni2,0.0
mp-7538,LaErO3,4.394499999999999
mp-759607,LiSb4P7O24,3.389
mp-10221,Pr3(NiGe)4,0.0
mp-556951,CuH3C2NO4,0.2936
mp-12660,LuB6,0.0
mp-28016,Li4Ge9O20,2.9382
mp-779594,Zn2As2O7,2.4425000000000003
mp-1004375,MgMn4O8,0.23139999999999986
mp-758281,RbB2P2HO9,5.7824
mp-569885,Cs2TaCl6,0.0
mp-5078,SrZnF4,5.0642
mp-1094627,MgGa,0.0
mp-984699,BaSr3,0.0
mp-1022947,Mg6MnMo,0.0
mp-773934,Li6V3P8O29,1.0847
mp-3591,NdBRh3,0.0
mp-30656,TiGaNi,0.0448000000000004
mp-1033754,HfMg14SbO16,0.0
mp-29419,Hf(Te2Cl3)2,1.2626
mp-753519,CuPO4,0.0
mp-1098850,BaMg30CuO32,0.3052000000000001
mp-764038,Mn12O7F17,0.2763
mp-569657,Sm(AlZn)2,0.0
mp-19719,Yb2MnSe4,0.0
mp-36819,Sr(CeSe2)2,0.0
mp-1095683,NbIr,0.0
mp-19332,BaGd2NiO5,2.0621
mp-776319,LiNbCuO4,0.10179999999999988
mp-998344,CsAgBr3,0.0
mp-753921,Sb11S18,0.0
mp-8375,Th(SiTc)2,0.0
mp-4798,Sc(AlC)3,0.02590000000000004
mp-569322,Te2Ir,0.0
mvc-6351,V3(AsO4)4,0.017400000000000082
mp-761709,LiCoPO4,2.8138
mp-1079242,DyCdGa,0.0
mp-4124,CaCN2,3.5804
mp-865336,Lu2OsPd,0.0
mp-628705,YbFeGe,0.0
mp-1003764,K3Mn4O8,0.4041999999999999
mp-710,SmP,0.0
mp-654373,RbVPO5,2.9656
mp-1028019,Mg14ZnC,0.0
mp-33528,NbP2O7,0.0
mp-23076,Rb2CoCl4,0.8487
mp-3817,La2Au5F21,1.8445
mp-1034491,SrMg14CdO16,2.4502
mp-20750,Tb3SnC,0.0
mp-510401,GdP,0.09410000000000007
mp-571333,Ca5(SiN3)2,2.1605
mp-767931,Na4Ti5Mn4O18,0.8315999999999999
mp-23143,Ca2Cu(ClO)2,0.0
mp-851262,Mn6O5F7,0.0
mp-1100488,Li9Mn7O16,0.0
mp-653562,Ag3I(NO3)2,0.0
mp-1890,BMo,0.0
mp-767993,Li2Fe(CO3)2,3.515000000000001
mvc-2487,Sr2Mn2AlTlO7,0.0
mp-761402,Li2Fe5(Si2O7)2,3.0041
mp-582648,RbRe3Br10,0.9908
mp-10772,CeAsO4,0.057599999999999874
mp-505345,SrV2(P2O7)2,2.0980000000000003
mp-541021,SbAsPd5,0.0
mp-771682,Li2TiV2O6,0.9608999999999996
mp-20140,Rb2FeCu(CN)6,3.9017
mp-554457,Ho(Mo3S4)2,0.0
mp-7046,RbDyS2,2.3216
mvc-9499,Ba2Ti2F11,0.057700000000000085
mp-1095680,PrGeRh,0.0
mp-6268,KTiPO5,3.0442
mp-676291,Ta6Te3S,0.0
mp-25011,NdMnPO,0.06799999999999963
mp-21489,Rb2PbO3,1.2033
mp-769992,Li2CrFeO4,2.043
mp-22782,TiNiSn,0.018199999999999328
mvc-11885,Ba4CaTl4(Cu3O10)2,0.0
mp-21508,Y2Pd2Pb,0.0
mp-21525,RbPb,0.40500000000000025
mp-1180,MnPt3,0.018200000000000216
mp-849803,Li2Ni2S3,0.0
mp-1079681,ZrAu3,0.0
mp-1094195,La2Mg,0.0
mp-762724,LiMn(PO3)3,4.2941
mvc-8346,CaNi(GeO3)2,2.8164
mp-755651,CsGdO2,2.4731
mp-862720,Sr2CdIn,0.0
mp-677237,Y3U2O10,0.14669999999999914
mp-1035991,YMg14ZnO16,0.1379999999999999
mp-996161,Nb3AlC2,0.0
mp-560625,RePbClO4,3.3739
mp-1031634,Mg6VCrO8,0.0
mp-3536,MgAl2O4,5.1095
mp-31756,Ba2FeReO6,0.012299999999999756
mp-425,GdB2,0.0
mp-569505,TbRe2SiC,0.0
mp-1038036,RbMg30MnO32,1.5036000000000005
mp-20924,U(FeSi)2,0.0
mp-532091,Na26In4O19,1.2783
mvc-7378,Zn2SbWO6,0.0
mp-567413,TbInPt,0.0
mp-6915,As2PdO6,0.0
mp-23300,NdBi,0.0
mp-767131,LiMn2O3F,1.1058
mp-531948,Ga6SnTe10,0.8614000000000006
mp-1097513,LiGa2Co,0.0
mp-694554,Mn3(P2O7)2,0.0
mp-7738,LaSeF,1.7251000000000003
mp-645193,Zr4AlNi2,0.0
mp-1073730,MgSi,0.0
mp-779240,Na4Fe2C4SO16,0.9841
mp-1095595,SbSI,1.6956999999999995
mp-32088,LiMoP4O13,1.2743
mvc-2273,AlCu3(WO3)4,0.0
mp-686765,YTi2CdO6F,1.3491999999999995
mp-643074,Cs2P2H2O7,5.2232
mp-560151,AlPO4,5.4802
mp-540610,K2U7O22,1.4469000000000003
mp-765937,Li4CrCo3O8,0.3300000000000001
mp-1029387,TaZn2N3,2.3341
mp-676311,Nd2Zr2O7,2.3629999999999995
mp-1078551,Ba2NdMoO6,0.9790000000000004
mp-984726,Dy(Al2Cu)4,0.0
mp-551135,BaCuB2O5,0.4944
mp-505085,NaCuF3,0.019200000000000102
mp-1078086,In2Ni3Se2,0.0
mp-862728,Pm2ZnRu,0.0
mp-766781,VF5,3.0714
mp-6016,NdAlGe2O7,3.5691
mp-1034231,RbMg14BO16,1.3453
mp-20529,Ba3NaIr2O9,0.0
mp-684059,LiTi(PO3)5,0.1854
mp-20499,Sc2FeS4,0.0
mp-542874,LiAl(SiO3)2,5.303800000000002
mvc-15815,CrN,0.0
mp-1076679,La7SmV7CrO24,0.7699999999999996
mvc-2977,Ba2AlTlCo2O7,0.031700000000000284
mp-1094478,MgZn3,0.0
mp-555825,Na4Sc2Si4O13,4.6001
mp-1885,AlIr,0.0
mp-24411,K2LiAlH6,2.4373
mp-1079816,ZrAsOs,0.0
mp-32581,Pr2Te3,0.8827999999999996
mp-1094122,Mg,0.0
mp-744019,CrH9(CN2)3,0.0
mp-694975,Ba3HoUFeO9,1.4135
mp-30195,HoCuP2,0.0
mp-19073,La2Ni2O5,2.1164999999999994
mp-975195,RbAc3,0.0
mp-1027143,MoWSeS3,0.5151000000000003
mp-29228,CsSrN9,3.8209
mp-5382,Sc6Si7Ni16,0.0
mp-764411,Mn2OF2,1.0902999999999996
mp-773586,CrP2O7,0.8172999999999999
mp-686615,AlPO4,0.043500000000000316
mp-600215,PH9C2NO3F,5.6759
mvc-9170,CaVBiO5,3.1569
mp-554517,NaMnF4,2.0519
mp-775299,FeCo(PO4)2,0.6879
mp-1093771,Sr2ZnAg,0.0
mvc-12280,Ba2CaV2(P2O9)2,1.9472
mp-555297,HoH16C2S2NO12,5.4777
mp-1079664,Nd2InNi2,0.0
mp-997019,AgPbO2,0.0230999999999999
mp-32629,Ce2S3,0.0019000000000000128
mp-861894,Li2LaSn,0.0
mp-29890,Th2AuF11,2.3115
mp-579631,V4(P2O7)3,1.7479
mvc-11953,VP2O7,1.1998999999999995
mp-31084,ZrGe2Rh,0.0
mp-685272,InSnBr3,1.8471
mp-10062,Ba2NdNb(CuO4)2,0.0
mp-648179,Cs3Mn3V4O16,0.8896999999999999
mp-569577,Tb(SiAu)2,0.0
mp-669508,TaP2NCl12,2.8674
mp-779853,Li3Co(BO3)2,1.1831999999999998
mp-643270,K3ZnH5,3.7101
mp-1096419,Co2CuGe,0.00649999999999995
mp-1009460,Hf,0.0
mp-675011,CsPF6,7.1409
mp-15553,KGd2CuS4,1.033
mp-659830,CeIn4Pd,0.0
mp-763581,Li8(FeO2)5,0.0
mp-775290,Li4Nb2Cr3Cu3O16,0.042100000000000026
mp-19897,Eu2TeO2,0.002000000000000224
mp-3107,Ga3PO7,3.1409
mvc-9314,PrTi2ZnO6,0.0
mp-1038690,BaMg30CrO32,1.5042
mp-1213,NdSb,0.0
mp-557994,Ba3Sc(BO2)9,5.2789
mp-672371,Ni3Sb,0.0
mp-780793,Fe10O11F9,0.0
mp-694940,MnAl2Sb2(PO4)6,2.4758
mp-5425,RbCuC2,1.9542
mp-1099274,Mg6FeNi,0.0
mp-555240,BaVS3,0.0
mvc-8781,Zn(BiO2)4,0.0
mp-861559,TaFeO4,1.8691
mp-776747,V3Fe2Te(PO4)6,0.0
mp-15742,Nd2CuO4,0.0
mp-1097511,LiTa2Os,0.0
mp-775961,Li4MnSn(WO6)2,1.0090000000000003
mp-755416,HoGaO3,3.6065
mp-622099,SrMnV2(AgO4)2,1.8933
mp-30798,NbZn2,0.0
mp-764093,Li5Ni2(PO4)3,4.0388
mp-557510,Cu3TeS3Cl,0.7738999999999994
mp-1078998,LaClO2,2.5173
mp-600561,LiRh,0.0
mp-6501,BaHo2ZnO5,3.0589
mp-1074123,Mg4Si7,0.0
mp-13166,YbAgO2,0.0
mp-556916,GaAgS2,1.0178000000000005
mp-707986,K2Pr2H3(S2O9)2,0.1872
mp-755664,Li2(TaS2)3,0.0
mp-1022464,Mg6FeCu,0.0
mp-765666,Na7(NiO2)10,0.0
mp-999287,PrRhC2,0.3546000000000005
mp-22214,Rb2RhF6,1.9826
mp-866079,MgSc2Ru,0.0
mp-778025,Li3Mn2FeO6,0.3580000000000001
mp-585184,Mo2P3O13,1.1706
mp-643586,CsHS2(O3F)2,5.6582
mp-1096131,HfScZn2,0.0
mp-781965,V2OF5,1.7342000000000002
mp-84,Sn,0.0
mp-764862,Li5Fe8(BO3)8,1.3952
mp-757233,Gd2Zr2O7,2.7790000000000004
mp-1037249,SrMg30CuO32,0.4874000000000001
mp-585195,Li2Co3(P2O7)2,2.9026
mp-561627,Na4CoO3,1.1125999999999998
mp-862929,Li2PmAl,0.0
mvc-3008,SrCaMn(PO4)2,3.9127
mp-770027,Na5LiMn2P2(CO7)2,3.2957
mp-766793,Li5Co5(NiO6)2,0.3203999999999998
mp-633668,K23Na8(CdIn4)12,0.0
mp-1018029,CuPd,0.0
mp-667373,SiO2,5.5781
mp-865307,Tm2CuIr,0.0
mp-1039403,CaMg,0.0
mp-774128,Li2TiV3O8,0.006399999999999739
mp-1094288,Sr2Mg,0.0
mp-764415,MnFeCo(PO4)3,0.5134000000000003
mp-30746,YIr,0.0
mp-32939,Fe7O8,0.13640000000000008
mp-777317,Mn7Fe3O20,0.0
mp-640515,LiV(SiO3)2,1.8767000000000005
mp-676319,Dy2Zr2O7,2.7425999999999995
mp-767600,Li2MnF5,1.8449
mp-781803,Li3Ti2(PO4)3,0.010600000000000165
mp-705059,TlNi4(PO4)3,2.8053
mp-23558,Ag2BiO3,0.3843000000000001
mp-1028999,Te2Mo(WS2)3,0.0
mp-1078399,CsAl,0.0
mp-18774,NaFeP2O7,2.5242000000000004
mp-25592,LiNiO2,0.0
mp-674232,Ca2Sn2F3,0.0
mp-849219,V3(O2F)2,0.379
mp-566049,KMoAsO6,2.6594
mp-850369,LiVP2HO8,1.3494000000000002
mp-651337,V3P4O15,1.9622
mp-989561,NaTl2GaF6,4.3908
mp-1097327,YSbRh2,0.0
mp-567932,LaMg4Cu,0.0
mp-1102,LuN,0.24209999999999976
mp-1097427,AlFeTc2,0.0
mp-770702,Li2AlFeO4,2.3434
mp-675651,MgPS3,2.7986
mp-541487,TlPt2Se3,0.4569000000000001
mp-554336,NbAg2(PS4)2,1.6183
mp-752400,Ce2Sm2O7,2.0295
mp-977545,ZrTc2W,0.0
mp-705007,LiMo(PO3)4,3.8685
mp-973254,LaNdHg2,0.0
mp-18995,Ba2FeMoO6,0.0
mp-1006588,Zn3In2O6,1.2096
mp-1030753,Te4Mo3W(SeS)2,0.0
mp-24767,H12C4NClO4,5.4665
mp-767307,Li4Mn3Cr(PO4)4,2.3950000000000005
mp-17739,Sr5Sb3,0.33729999999999993
mp-569074,Th7Pt3,0.0
mvc-6920,Mg(CoO2)2,0.2669000000000001
mp-18196,Ba(TmTe2)2,1.0160999999999998
mp-1019557,BaS4O13,4.6756
mp-643279,K2H6Pt,3.9984
mp-566301,As3Pb5ClO12,3.1835
mp-989579,Rb2LiTlCl6,1.5623
mp-568440,Ho2(Ni2B)5,0.04879999999999996
mp-758289,Th4Ta18O53,1.6168
mp-1023063,SrMg6Mn,0.0
mp-1035698,Mg14VFeO16,1.3251
mp-972405,U3Cl,0.0
mp-555865,Na2Sr7Al6F34,6.9463
mp-15560,Ga(PO3)3,4.8881000000000006
mp-608432,KFeF3,0.11869999999999956
mvc-13217,V4ZnO8,0.0
mp-851039,FeOF,1.3310000000000002
mp-1035429,Mg14TiCuO16,0.0
mp-755941,Sm3TaO7,3.3894
mp-631495,BaYSc,0.0
mp-568799,RuCl3,0.0
mp-776233,Li2Fe3SbO8,1.3362000000000005
mp-565947,Mn2BiPO6,2.2474
mp-1094147,Na4Mn9O18,0.0
mp-765289,LiSnPO4,3.2874
mp-19275,CoO,0.004599999999999938
mp-655446,VS2,0.0
mp-773962,Li6V3P8O29,1.0267
mp-585194,LiCo(PO3)3,0.000199999999999978
mp-1026427,HfMg14B,0.0
mp-769519,Li21(FeO4)4,1.4195
mp-764760,LiVOF3,2.1361
mp-973066,ScGeRh2,0.0
mp-1754,UHg2,0.0237999999999996
mp-998881,K,0.0
mp-1028388,Mg14NiSn,0.0
mp-777915,Na2FeO2,0.9473
mp-41918,SrLaNbZnO6,2.373
mp-11347,TbF3,7.7511
mp-3402,UTeN,0.0
mp-21269,U2AlCo2,0.0
mp-863404,Li2Cu2F7,0.0
mp-32519,V(PO3)4,1.5953
mp-768906,YBrO,4.4876000000000005
mp-756376,Li3Nb4ZnO12,0.0
mvc-8326,ZnCu3(NiO3)4,0.0
mp-867266,CaMgTl2,0.0
mp-642844,BaH5BrO3,4.7616
mp-8611,Li8CeO6,2.5162
mp-1038961,CaMg,0.051099999999999916
mp-7099,NdB2Ru3,0.0
mp-769060,Bi12BO20,0.0
mp-555849,Li2Mo4O13,2.4881
mp-505318,V2Se3O11,2.199
mp-554615,KEr(PO3)4,5.3733999999999975
mp-1274,CoS,0.0
mp-510294,Sr2CuWO6,0.14929999999999974
mp-757924,SbH5(Cl3O)2,1.8687
mp-1003320,CaMn4O8,0.3224
mp-770261,Mn2P2O7,3.2942
mp-973508,KRb3,0.0
mp-773215,NaCoCSO7,1.0307
mvc-2622,Ba2Mg2Tl2Cu3O10,0.0
mp-1076880,La7SmCo5Cu3O20,0.0
mp-777603,LiMnCo3O8,1.0574
mp-694894,LiMn12O24,0.0
mp-706447,La2Mg3H48(NO5)12,3.6847
mp-760411,Bi2CO5,2.0926
mp-862887,LiSc2Os,0.0
mp-10660,Tm,0.0
mp-556421,NdVO3,1.0340999999999996
mp-1099606,K3Na5V3Mo5O24,0.006199999999999761
mvc-5120,ReWO6,0.0
mvc-13497,AlCuF5,0.0
mp-975638,Pr3Hf,0.0
mp-867167,LiCa2Tl,0.0
mvc-3283,MgSiNiO5,0.0
mp-762955,Li3V3P8O29,0.6111
mp-1029063,TeMoWSeS2,0.18599999999999994
mp-1008282,Cr3Fe,0.0
mp-683986,Yb11(U2S11)2,0.0
mp-1075489,Mg5Si6,0.0
mp-770133,Li5Fe2P2(CO7)2,1.436
mp-556433,Rb5Tl3O,0.0
mp-634802,Np(OF)2,0.0
mp-849084,Cr5S8,0.0
mp-1079872,PrFeSb2,0.0
mp-2316,TmZn,0.0
mp-557179,NaSbS2,0.4528999999999997
mp-11493,LuPb2,0.0
mp-567296,CdI2,2.3218
mp-772013,V3Sb(PO4)6,0.9349
mp-30402,K(SnAu2)2,0.0
mp-1078209,LiLa2FeO6,0.7263999999999999
mp-27253,Au2O3,0.8199999999999998
mp-604337,Cd(HN2)4,3.2882
mp-765492,Mn11Cu7O24,0.0
mp-998947,TiRu3,0.0
mp-684713,Al2O3,3.4412999999999987
mp-571270,NbSe2,0.0
mp-775246,Cr5(PO4)4,1.4295999999999998
mp-24431,Si2H2O3,6.3669
mp-1027480,TeMoWSeS2,0.0
mp-16053,CuSiO3,0.375
mvc-9057,ZnCo2(PO5)2,0.0
mp-777913,Li2VO2F,1.0852
mp-765230,LiVOF3,1.5224
mvc-15941,YBiO3,2.3851000000000004
mp-773768,Na2CoO3,0.7591999999999999
mp-978828,Sm3Zn,0.0
mp-775293,Na9Fe10(SiO3)20,0.012399999999999968
mp-1074141,Mg4Si7,0.0
mp-8963,Cs2HgF4,2.0818
mp-997024,CsAuO2,1.4726
mp-865303,Tm2CoOs,0.0
mp-28027,AsF3,5.359999999999999
mp-11819,BaSnHg,0.07679999999999998
mp-1016848,SrIrO3,0.0
mp-1013900,TiSCl,0.0
mp-1025098,ThSiPt,0.0
mp-761033,Hf3N2O3,3.1518
mp-8975,Hg3(AsO4)2,0.9869
mvc-498,BaMg(AgO2)4,0.0
mp-571367,Hf(CoSi)2,0.0
mp-775029,VSb3(PO4)4,1.8837
mp-540960,Zr3V3O,0.003300000000000303
mp-610706,Cs2CoF6,1.8373
mp-22967,Li2FeBr4,0.5386000000000002
mp-16402,Tb4(SiS4)3,2.4232000000000005
mp-13024,AlPO4,4.9644
mp-763906,Li2VCrO4,1.7347000000000006
mp-565622,K2Ni(NO3)4,2.9637
mp-8876,Ca4Al6SO12,3.7267
mp-541183,Ta2NiSe7,0.0
mp-13588,CsB(CN)4,6.3597
mp-1040304,HfMg30TiO32,0.06510000000000105
mp-568746,Bi2Pd,0.0
mp-554912,BaMnFeF7,2.1283
mp-1095124,TaCo3,0.0
mp-759377,LiTi2(PO4)3,2.5653
mp-8653,CeSiRu,0.0
mp-1022479,Mg6ZrGa,0.0
mp-6112,K6Na3GaSb4,0.6974
mp-770241,Li4Cr3GaO8,3.1166
mp-1094238,MgSn,0.0
mp-1038204,LiMg30AlO32,4.7631000000000006
mp-1016625,HfMg6Cr,0.0
mp-1039914,BaMg30SiO32,0.7358000000000002
mp-686465,Gd2Ti2O7,2.4235
mp-15844,TaPO5,3.9439
mp-1093609,NaIn2Pb,0.06680000000000019
mp-850371,Na6V2B4AsO16,0.0
mvc-2234,Ti5ZnO7,0.0
mp-861171,LiCr(SiO3)2,2.1082
mp-5182,Nd2Fe14B,0.0
mp-573969,CsCeSiSe4,0.15280000000000005
mp-763080,Li2Fe2CoO6,0.0
mp-865528,Ba5Cd2Sb5F,0.0
mp-765105,CrOF4,2.3486
mp-8116,K(MoS)3,0.3571
mp-686674,Ba2La3Si3O12F,4.109400000000001
mp-1095074,Ba2GdMoO6,0.0
mp-1096368,Be2OsPt,0.0
mp-769892,Li4Mn3Co5O16,0.8765000000000001
mp-30670,Th3Ga2,0.0
mp-707953,ZnP2H11C2NO8,4.4996
mp-31322,La6OsI10,0.0
mp-21934,In9Pb4S17,0.0
mp-1013528,Ba3N2,0.0
mp-13936,Sr2GdReO6,0.036599999999999966
mp-637256,KC2N3,4.3293
mp-673798,K3ClO,1.0264
mp-42175,Ca2AlH10ClO8,4.3268
mp-1133,V5S4,0.0
mp-14422,Ca(AlS2)2,3.6113
mp-21168,EuGa2,0.011600000000000056
mp-733457,CsNa2(H5O3)3,4.7481
mvc-16291,TiZn(BiO3)2,1.6179999999999994
mp-865664,TiRe2W,0.0
mp-756013,PrSiO4,0.0
mp-1030245,Ca3ReN4,0.0
mp-31870,LiFeP2O7,2.7214
mp-28005,As2(SO4)3,4.5714
mvc-2297,Ba2CaCuMo2F14,0.7659
mp-541433,Cd(BiO2)2,2.7092
mp-1032937,YMg6FeO8,0.0
mp-761683,Na4TiO4,3.2426
mp-1073459,MgSi2,0.0
mp-755831,BrClO,1.1661
mp-608126,MoF5,2.0409
mp-695797,Eu2H6Ru,0.3807999999999998
mvc-10566,MgMn4O9,0.0
mp-1077553,Sr2BBrN2,2.4109
mp-555128,H8C3O2,5.6412999999999975
mp-28321,Sc7CI12,0.0
mp-555320,Li4CO4,5.351
mp-761664,Li2CoP2O7,2.9887
mp-31362,Na3YCl6,5.1809
mp-850864,Ho2TiO5,3.1512
mp-559773,Na4Sr(SiO3)3,4.0944
mp-644311,CuPt,0.0
mp-867902,LiSiRh2,0.0
mp-32403,Ni(HO)2,3.1318
mp-864775,HoAgHg2,0.0
mp-582709,Y13Cd58,0.0
mp-779588,LiCu2PO4,0.6551
mp-764209,Co4OF11,0.5226999999999999
mp-568100,ReNCl4,1.0777
mp-1691,La2Ni3,0.0
mp-38117,Ba(GaTe2)2,0.5282
mvc-5576,CaVAsO5,1.6481
mp-555699,BaLa(BiS3)2,0.6691000000000003
mp-2057,DyB2,0.0
mp-631194,La3Ga4Cl,0.0
mp-30334,Th2Al7,0.0
mp-12175,Y5Pt4,0.0
mp-13538,KPrSiSe4,2.1773
mp-1027838,KMg14Cu,0.0
mp-680309,Mo2NCl8,0.0
mp-14624,K5P2Au,0.4874999999999998
mp-17816,Na5AsO5,1.4127000000000005
mp-1028698,WSe2,1.1997000000000002
mp-1024056,Fe2SiS4,0.01869999999999994
mp-9844,BaAl2B2O7,4.6477
mp-4747,Ca2SnO4,3.0359000000000003
mp-753493,CeU5O12,0.0
mp-779482,Li6Bi2B4SO16,0.13070000000000004
mp-558045,NaLi2PO4,5.1689
mp-999288,PrTlTe2,1.5017000000000005
mp-633655,Rb5Si2NiO8,0.9725
mp-1094731,SrMg3,0.0
mp-695987,MgH10CO8,4.7946
mp-762956,Li5V3P8O29,1.1195
mp-30614,ErZn12,0.0
mp-534793,KCa5Mg5Al(SiO3)12,4.8377
mvc-2940,CaCoO2,1.6793999999999998
mp-558619,Li2Ti6PbO14,2.764
mp-558988,Ni(NF7)2,2.3025
mp-1031011,NaCeMg6O8,0.0
mp-865899,Ti3Os,0.0
mp-868601,Li4Ti2Mn3Co3O16,0.6499999999999999
mp-761451,Li2CrPO5,2.3448
mp-863292,Na3VP2O9,0.43489999999999984
mp-142,Ga,0.0
mp-1098412,LiMg30SiO32,0.0
mp-674645,Na3Nd5Cl15,0.0
mp-1096826,As,0.0
mp-16800,Sc2(SO4)3,4.3566
mp-570466,Li2Ca,0.0
mp-558650,UCu2(PO5)2,0.0035000000000002807
mp-803,DyAl2,0.0
mp-2606,BaPd5,0.0
mp-531296,Ge(PbS2)2,2.0771000000000006
mp-755054,Ti3N2O3,1.4486999999999997
mp-644292,Eu2MgH6,0.24760000000000024
mp-1095955,Ta2OsRh,0.0
mp-11178,SrCeN2,1.1963
mp-1071820,SiO2,4.716
mp-21852,Nb3PbS6,0.0
mp-865196,Li3V3P8O29,0.7106999999999999
mp-773972,Mn(SO4)2,0.2263
mp-1025113,DyInPt4,0.0
mp-9036,KSmTe2,1.2623000000000002
mp-705378,Li14Co9(P2O7)8,2.4204000000000003
mp-672234,N2,2.9912
mp-861174,Li3Fe(PO4)2,2.2938
mp-570070,Yb4Ge6Rh7,0.0
mp-29635,PuGa,0.0
mp-19977,SmIn3,0.0
mp-17499,K7Nb(SO4)6,2.8445
mp-3904,Mg2GeO4,3.0734000000000004
mp-765440,LiV2F5,2.2369
mvc-15474,YSnO3,0.0
mp-1035156,LiMg14BiO16,2.1323999999999987
mp-31724,Li3Cr2(PO4)3,1.8925000000000003
mp-763974,Li8TiNi7O16,0.0
mp-779153,Li3Mn2(CoO4)2,0.2149000000000001
mp-21493,U2Ga8Ru,0.0
mp-19723,InAuO2,0.0