mpid,formula,gap pbe
mp-32107,Li3Mo2(PO4)3,3.984
mp-766864,LiVF6,3.2532
mp-1099653,Sr2Ca6FeCo7O20,0.0
mp-998964,TiGaFeCo,0.0
mvc-843,Mg(Ni2O3)2,0.0
mp-3916,K2(SO2)3,3.5394
mp-605735,Sr3In4Pb,0.0
mvc-14167,WF5,3.1906000000000003
mp-1094647,Mg2Ga,0.0
mp-697666,H6S(NO2)2,5.2248
mp-16226,TaS2,0.0
mp-6072,TmMn6(GaSn2)2,0.017500000000000068
mp-1096587,Sc2TlPd,0.0
mp-1096923,CrFeCoNi,0.0
mp-12697,Sc(MnSn)6,0.005300000000000082
mp-566653,Fe3(TeO3)4,1.7774
mp-867347,Al3Tc,0.0
mp-504457,BaTi6O13,2.6401000000000003
mp-997183,MnAuO2,0.0
mp-17605,CsNd(PO3)4,5.3001
mp-23713,CaH2,3.028
mp-766558,NaMn3O6,0.5113000000000001
mp-5172,Zr2(Ni7B2)3,0.0
mp-541148,KUVO6,1.9806
mp-680207,Gd2(FeB)7,0.0
mp-767535,NaHfPCO7,4.577
mp-977058,NpBO3,0.0
mp-531051,Ca4Nb2O9,2.4215
mp-768250,LiPrPCO7,0.3264
mp-763612,Li3Mn2(CO3)4,0.5049
mp-777843,Ge2N2O,2.3947000000000003
mp-1096512,NbAlTc2,0.0
mp-323,LaF3,4.8108
mp-772730,Li2Mn3VO8,0.0
mp-1073408,MgSi2,0.0
mp-850094,LiMn(PO3)4,0.7981
mp-913079,BaTbO3,0.0
mp-17447,Sr10P6SO24,3.5439999999999996
mp-763912,V3O5F,0.4180999999999999
mp-1018152,LuAu2,0.0
mp-945779,DyCuTe2,0.12340000000000018
mvc-11964,CaCo2O5,0.2712000000000001
mp-675271,Na2CO5,0.0
mp-568186,YRu2,0.0
mp-1096644,Al2OsRh,0.0059000000000000155
mp-863868,Li2VF5,3.0374
mp-28375,Ta2AgF12,0.7875999999999999
mp-977361,ZnFeRh2,0.0
mp-1075744,Mg5Si9,0.0
mp-21046,U(GeIr)2,0.0
mp-1410,DyN,0.05149999999999988
mp-1026581,BaSrMg14,0.0
mp-689960,Mn(PO3)4,0.4358
mp-28828,Li6FeCl8,0.6532999999999998
mp-1080345,CeSe2,0.2346000000000004
mp-754415,Tb3NbO7,2.5783
mp-769849,CoO2,0.4673999999999998
mp-42897,NaPrTiNbO6F,2.8110000000000004
mp-565425,NaVCdO4,2.6646
mp-555001,LiMnFeF6,2.4344
mp-20190,LaZnSn,0.0
mp-653586,CuS4(N2Cl)2,0.10749999999999993
mp-873,VPd3,0.0
mp-1079671,Tb2CuGe6,0.0
mp-859128,Ba2CaI6,3.9865
mp-1078645,YCoGe2,0.0
mvc-14985,YNiO3,0.033999999999999815
mp-753600,Bi3O4F,2.1084
mp-15519,NdZn(BO2)5,5.037800000000002
mvc-10476,MgCu2(NiO4)2,0.0
mp-29045,La5Ti5O17,0.0
mp-30083,TlBi,0.0
mp-8045,V5P3N,0.0
mp-980938,Tb3Al2,0.0
mp-19050,Ca2MnO4,0.6242000000000001
mp-31470,Na4TlAu,0.0
mp-616521,AgC2N3,3.5682
mp-556489,Ta2SnO6,2.2893
mp-961704,NbTlPt,0.0
mp-607124,Dy5(In2Ni)2,0.0
mp-565447,ThV4O12,2.5723
mp-17196,TiAs2O7,2.7038
mp-764301,K2LiVPO6,2.3985000000000003
mp-1099952,Ca7MgCo7CuO20,0.0
mp-757660,Li2CuCO4,0.06919999999999993
mp-27662,CsI2Br,1.9762
mp-29639,Te7Pd20,0.0
mp-567341,PrCoC2,0.0
mp-771103,Li5Fe5(SbO6)2,0.0
mp-752569,La3ScO6,4.0062
mp-1094495,YMg2,0.0
mp-763379,LiV(PO3)3,2.5322
mp-1075499,Mg5Si6,0.0
mp-1077280,AlNF4,0.0
mp-771338,La2P4O13,4.6152
mp-1027801,TeMo2Se2S,0.0
mp-19699,KVTeO5,3.3433
mvc-3975,CaSbO3,0.14400000000000013
mp-865049,HfMgPd2,0.0
mp-1021404,CsMg6Sn,0.0
mp-557873,SiO2,5.6831
mp-765143,Li2NiP2O7,2.6436
mp-15985,Zr3(Cu2Ge)2,0.0
mp-585256,Co(PO3)4,0.4695
mp-12779,CdTe,0.6198000000000001
mp-27853,Hg3(TeBr)2,1.6997
mvc-5331,SbO2,1.3299
mp-1028216,Mg14ZrAl,0.0
mp-849971,LiVF4,2.2211
mp-29097,Hg3TeBr4,1.9366
mp-703316,LaMg2H7,2.6059
mp-18130,Nd2Si2O7,4.6637
mvc-2250,YCu3(NiO3)4,0.0
mp-621176,YInAu,0.0
mp-8648,TiFeSi,0.0
mp-558977,LaErS3,0.8793999999999995
mp-8872,RbNa2BO3,2.9275
mp-973966,LiIn(IO3)4,3.061300000000001
mp-760863,Na4Ti7O16,2.3982
mp-21239,FePb2(CN)6,3.4058
mp-613379,MoF3,3.1481
mp-14726,Na4TiO4,3.3246
mp-12067,MnAl,0.00569999999999915
mp-7502,K2Sn2O3,1.2308999999999997
mp-14294,Ba2YbSbO6,0.0
mp-979924,Dy3Y,0.0
mp-770931,CuTeO4,0.3853
mp-619486,Rb2Hg(CN)4,5.7479999999999976
mvc-10508,CaCu2(WO4)2,1.3795000000000002
mp-864935,MgAu3,0.0
mp-1029334,Zn2SbN3,0.1737000000000002
mp-773445,NaLi2MnPCO7,3.5568
mp-1039851,Mg30SiBiO32,0.0
mp-556155,ZnS,2.0257000000000005
mp-22812,In2Ir,0.0
mp-12614,Ca2Cu,0.0
mp-559998,Cs(OsO3)2,0.0
mp-1037209,YMg30NbO32,0.0
mp-851287,Co21O40,0.0
mp-10966,Tb2Cu(GeO3)4,0.8603000000000001
mp-684106,LiSbP2O7,3.9865
mp-780641,MnCrO4,1.1909999999999998
mp-20578,Eu(BIr)4,0.03829999999999957
mp-759958,AsH3C(SF2)3,2.7919
mp-761546,LiFeSiO4,2.7333
mp-765780,LiV2OF5,1.804
mp-19164,BaDy2CoO5,0.30630000000000024
mp-30959,LiHS,3.5474
mp-1026602,Mg14SnW,0.0
mp-763992,V6O11F,0.8278999999999996
mp-1099287,Mg6FeC,0.0
mp-7387,KAgF4,1.8518
mp-696138,Li10Ge(PS6)2,2.3653
mp-865813,YbMgTl2,0.0
mp-553342,CsBe2BO3F2,6.0015
mp-620000,K4V5CuClO15,0.1657
mp-2853,GaN,0.3945999999999996
mp-761464,LiFePO4,3.3973
mvc-13319,Mg2Nb2FeO8,2.4827000000000004
mp-559977,KNd(PO3)4,5.356
mp-977562,NdCdAu2,0.0
mp-861612,CrFe(PO4)2,2.1968
mp-764076,Li3V3P8O29,1.2444
mp-568616,Nb2Br5,0.7090000000000001
mp-554601,RbCuF3,0.0
mp-974108,NiPbO3,0.0
mp-1038443,HfMg30CdO32,0.4957000000000011
mp-1076810,LaSmNi2O5,0.5480999999999998
mp-768809,Li3Bi(BO3)2,3.2286
mp-861720,Li3VPCO7,2.5652
mp-27576,Sc2GeO5,4.1263
mp-20836,Nd(NiAs)2,0.0
mp-1096325,YTlHg2,0.1001000000000003
mvc-11544,CrO2,0.0
mp-772482,Mn3Sn3(TeO8)2,0.0
mp-1013529,Sr3N2,0.0
mp-7461,Hg2SO4,1.9824
mp-850496,Li6Mn3Nb(PO4)6,0.7097
mp-768159,LiSnPCO7,3.0131
mp-12384,NaEr(PS3)2,2.5369
mp-1093714,V2ReRh,0.0
mp-556645,RbNbAsClO5,3.1146000000000003
mp-1021294,KMg6Bi,0.0
mp-995205,VMo,0.0
mp-1079270,Tm2NiSn6,0.0
mp-28988,In7Br9,1.5437999999999998
mp-768319,LiNi2(PO4)2,0.863
mp-19751,Ba2YbNbO6,0.03189999999999982
mp-540054,Fe(PO3)4,0.6089
mp-20401,HfCuSi2,0.0
mp-1019278,TbGeAu,0.0
mp-540671,Ti7Cl16,0.0
mp-631542,BaZrNi,0.0
mp-1077536,ZnSb2,0.0
mp-866052,Gd2PdRu,0.0
mp-4208,Ca2RuO4,0.0
mp-616461,Na2ZnCl4,4.5763
mp-31927,MnPO4,0.11209999999999988
mp-556702,Ba6Eu(ClF6)2,0.0
mp-1093723,La2AgHg,0.0
mp-1073013,Mg2Si3,0.0
mp-5620,TmB2Ru3,0.0
mp-622502,NaZr2MnF11,4.2413
mp-867119,LiHfPd2,0.0
mp-1098538,SrMg30CrO32,1.5884
mp-32318,Na5NiO4,1.9118
mp-680148,CdI2,2.322
mvc-4675,Zn(CuO2)2,0.0
mp-1078623,Zr2BIr6,0.0
mp-685187,Yb29S30,0.0
mp-907688,U(SiPt)2,0.0
mp-1025657,Te4Mo2WS2,0.0
mp-734771,PrP2(HO)7,5.2332
mp-764025,MnOF,0.15989999999999993
mp-782644,LiMn3(BO3)3,0.419
mp-756459,Cs3TmO3,2.3148
mp-568619,SiC,1.7478999999999996
mp-4280,GaCuO2,0.7286999999999999
mp-1019719,CsSi2BO6,5.2589000000000015
mp-755891,CsLiH4SO5,4.507499999999999
mp-707327,Na4Sn2H26Se6O13,1.7333
mp-991682,CeCoGe3,0.0
mp-850772,Li8CoNi9O20,0.0
mp-773253,Li2MnSnO4,0.8182
mp-776760,Ti3FeSb2(PO4)6,0.0
mp-5239,NdSiRu,0.0
mp-765222,LiSn3(P3O10)2,0.2083999999999997
mp-558969,Ho3ReO7,0.0
mvc-5013,Mg2CuWO6,0.4165000000000001
mp-1016281,Mg7Mo,0.0
mp-1035864,YMg14BO16,1.1354000000000006
mp-744549,NaLi5Ti3Cr3(PO4)9,2.191
mp-29211,V4Cu3S8,0.002400000000000624
mp-9379,Sr(SnAs)2,0.028300000000000658
mvc-11862,CaCu2(As2O7)2,0.3682
mp-1098516,RbMg30CrO32,3.3838
mp-761512,Co3TeO8,0.0
mp-11481,MoIr,0.0
mp-1036470,HfMg14AlO16,0.11570000000000034
mp-764045,Li3Mn(PO4)2,0.9068
mp-1025108,GdAlGe,0.0
mp-1033141,Mg6AlSnO8,0.0
mp-1080818,Ho2CoGe2,0.0
mp-12071,Ti3As,0.0
mp-771061,MnFeBO4,0.06680000000000019
mp-991438,TiCu,0.0
mp-1094760,CeMg3,0.0
mp-33746,SrCO3,4.2741
mp-1078804,ThInNi,0.0
mp-762036,Li(CoO2)2,0.0
mp-20525,CuSO4,0.0
mp-977578,Zr2TcPd,0.0
mp-29057,Nb3SBr7,0.7427000000000001
mp-707515,Mg16Si8HO32,0.0
mp-779981,Mn3(O2F)2,0.0
mp-771987,Li3MnV4O12,1.1592000000000002
mvc-12271,Ca2Fe2(SiO4)3,0.0
mp-764009,Mn6O7F5,0.0
mp-555387,BaSi2(BO4)2,5.5233
mvc-11221,WO2,0.0
mp-759636,Nb5O12F,0.0
mp-780875,Mn8O13F3,0.0
mp-867888,LiTm2Pt,0.0
mp-31132,Hg4OF6,0.1975
mp-27478,Na3PaF8,4.2399
mp-763501,Li3V2(O2F)2,0.9591999999999998
mp-685300,Ti4P8S29,1.0703000000000005
mp-1097669,ZnGaCo2,0.0
mp-767237,LiFe2(PO4)2,1.4168000000000005
mp-973528,K3Si,0.0
mp-19560,KNa2Li3Fe2(Si2O5)6,3.3680000000000003
mp-706252,LiFe5O8,1.3692000000000002
mp-1097454,ScCdPt2,0.0
mp-561011,Li2Ta2(OF2)3,3.8336
mp-1912,ZnAg,0.0
mp-1035122,Mg14VCoO16,0.23550000000000004
mp-705491,SrLaMnFeO6,0.0
mp-705497,Ga2P2H9NO11,3.1938
mvc-5220,BiO2,0.4568999999999999
mp-760485,Li2CuSiO4,0.0
mp-600029,SiO2,5.4247000000000005
mp-542995,Nb6Fe16Si7,0.012699999999999713
mp-864611,Nd2IrRh,0.0
mp-1033199,Mg6BSbO8,0.21389999999999976
mvc-14154,YMoO3,2.7288999999999994
mp-769905,ZnFeO3,0.0
mp-850451,Mn6O7F5,0.0
mp-1094862,MgZn,0.0
mp-866375,TiFe2Ge,0.1708999999999996
mp-20365,NpGe3,0.020299999999999763
mvc-7834,MgCoBiO5,0.000199999999999978
mp-777507,MnOF,0.0911000000000004
mp-532575,Na13Ca7S12(O16F)3,5.2446
mp-1025070,YCo2B2C,0.0
mp-1095904,Ba2HgAu,0.2664
mp-677074,PbO,0.0
mp-768684,Ce(ClO4)3,0.0
mp-763076,FeOF,0.7301000000000002
mp-557888,K5U2O4F9,2.7062
mp-562609,Mn(NO3)2,2.7416
mp-1035173,KMg14CoO16,0.0
mp-865750,Li2TeO3,3.3528
mp-764510,FeOF,0.5734000000000004
mp-650055,Fe15(Ge2O9)4,0.006999999999999672
mp-1016333,BaMg7,0.0
mp-23662,LiB(HO)4,5.5694
mp-1028478,MoW3(SeS)4,0.6242000000000001
mp-780775,Sr3Li3Cu3(PO4)4,1.5304000000000002
mp-1096499,LiNbRu2,0.1856
mp-1040007,LiMg30CO32,0.35609999999999964
mvc-2884,ZnWO2,0.0
mp-640054,Nd6In22Pt13,0.0
mp-704360,K6Na2V2S7O30,1.758
mp-1079926,La2ZrNiO6,1.8863
mp-771792,Li3V4NiO12,0.0
mp-905416,PuH3,0.0
mp-1022236,CeMg6Fe,0.0
mp-557894,SiO2,5.7182999999999975
mp-3915,BaHgO2,2.2727
mp-1033157,Mg6AlSnO8,0.0
mp-1031817,Mg6MnVO8,0.7625000000000002
mp-625082,H2CO,0.022800000000000008
mp-568280,Ba(NiAs)2,0.0
mp-768038,Li2Mn3GaO8,0.0
mp-705362,Li2Co(PO3)5,0.8796999999999999
mp-1039170,MgBi,0.0
mp-754153,LiH2BrO,4.3086
mp-25734,Rb2CoH12(SO7)2,3.3317
mp-607223,Np3In,0.0
mp-32838,Ce2Te3,0.0019000000000000128
mp-565509,KMo2Cl7O2,2.6315
mp-684555,USe2,0.0
mp-556406,AsS2NF10,4.5233
mp-686312,Na3Zr2Si2PO12,4.3726
mp-778337,Li2Mn(CoO3)2,0.8104999999999998
mp-850923,TiV(PO4)2,0.1166999999999998
mp-19971,ZnCo2Ge,0.011999999999999568
mp-744254,MnH8(BrO2)2,3.4753
mp-1022987,LaMg6Mn,0.0
mvc-239,CaSnO2,1.9405
mp-570290,MnTlCl3,1.1483999999999996
mp-558366,SiO2,1.179
mp-28328,RbI3,1.8571
mvc-7416,MgTaBiO5,3.3202000000000003
mp-756470,K2DyPCO7,4.4189
mp-1038750,CsMg30SbO32,1.0365000000000002
mp-25405,LiCuPO4F,0.10060000000000002
mp-1060247,PuBi,0.0
mvc-15960,Mn3Zn2O8,1.2662000000000002
mp-770741,Mg3(AsO4)2,2.6418000000000004
mp-776777,Li4CrCo2Ni3(PO4)6,0.0
mp-1098606,HfMg30BO31,0.0
mp-640113,KVF4,2.0578
mp-973960,KScO3,0.0
mp-30548,TlBF4,5.7573
mp-1027051,Mo3W(SeS)4,0.6638999999999999
mp-23002,TiBrO,0.0
mp-1022946,Mg6MnCd,0.0
mp-16771,MgSe2O5,3.0276999999999994
mp-1100724,Li9Mn2Co5O16,0.0
mp-570602,B,0.0
mp-1077056,GdAlGe,0.0
mp-9177,Y2Al3Si2,0.0
mp-777073,Li4Mn2C4SO16,0.7852
mp-1079892,AlW2C,0.0
mp-1019565,Ca3Ga2(GeO4)3,2.9786
mp-475,SnP,0.0
mvc-8943,ZnBi3O7,0.0
mp-550685,Ba2CaTeO6,2.9976
mp-23947,Cs3MgH5,2.6053
mp-505432,SmBeF4,0.0
mp-532211,Ba14MnSb11,0.016499999999999737
mvc-7434,CaTiBiO5,0.0
mp-1065844,RbS,0.0
mvc-5297,CaCuP2O7,0.0
mp-680580,Zn3As2,0.13779999999999992
mp-774102,LiNiO2,0.2820999999999993
mp-1095280,SrFe2S2O,1.9677
mp-22913,CuBr,0.4859
mp-699477,NaH6RuN(ClO)4,0.4229999999999999
mp-686718,Sr5Al11TlSi13O48,2.958
mvc-3019,SrMgFe(PO4)2,3.7512
mp-565322,Mn3B7IO13,3.7514
mp-850064,Mn4O7F,0.0
mp-1914,YGa2,0.0
mp-764377,Na7Ni17O24,0.0
mp-1026556,Mg14CrC,0.0
mp-567824,K2NaCo(CN)6,4.3382000000000005
mp-772699,Li4Mn5FeO12,0.0
mp-865466,TiH8(NF3)2,4.6829
mp-743594,NiH12SO10,5.0600000000000005
mp-569310,Sr(POs)2,0.0
mp-771789,TiMn3O8,1.4361000000000002
mp-555890,La7(RuO6)3,0.4051999999999998
mp-1743,Mo5As4,0.0
mp-1036100,Mg14MnCO16,0.5568999999999997
mp-765117,LiVCr(P2O7)2,1.3305999999999998
mp-561179,Ba2CuIO2,2.2555
mp-850251,Na2Ti9O19,1.7632
mp-5544,U(Al2Cr)4,0.0
mp-8134,UO3,1.6376000000000008
mp-1079405,MnPRh,0.0
mp-1080816,Cr3PN,0.0
mp-636976,VO2,1.2022000000000002
mvc-12090,Al5(BiS4)3,0.0
mp-25507,LiCrPO4,2.099
mp-773548,Li4Mn3Fe(BO3)4,2.9603
mp-780370,Sm3Al5O12,4.1378
mp-703320,Sr16Fe6Co2Mo8O45,0.5607000000000002
mp-555708,KCdC3(NO)3,4.1312
mp-775212,MnV2(PO4)3,0.0
mp-760655,Li3Bi(PO4)2,3.5843
mp-4419,NaNbO3,1.8455
mvc-2263,Co9O13,0.0
mp-24239,K(BH)6,5.6402
mp-557952,RbInP2O7,3.8119
mp-763316,Mn3O5F,0.0
mvc-14332,ZnNiF5,0.9996
mp-780800,Fe10O11F9,0.06980000000000007
mp-1079544,KTl,0.0
mp-762417,Li5Mn5O12,0.4550000000000001
mp-1095035,Eu2InPt2,0.0
mp-1097178,TaSiTc2,0.1431
mp-556256,Li3Fe2(AsO4)3,2.5266
mp-259,AlMo3,0.0
mvc-2142,Zn(WO3)2,0.552
mp-281,YbCo2,0.0
mp-29881,Ca3SiBr2,0.0
mp-764230,Li2MnO2F,0.0
mvc-7040,Re2O7,3.4687
mp-12307,Tl2Ge2S5,2.0942
mp-774384,Fe10O11F9,0.0
mp-30366,Ca3Au,0.0
mp-761553,Li2Ni(PO3)4,3.5437000000000003
mp-851283,LiFeSiO4,2.7299999999999995
mp-1078014,SiSbPt5,0.0
mp-554051,H6CNF,6.0427
mp-1098985,Mg14AlNiO16,0.07540000000000012
mp-1096918,CrN2,0.0
mp-849341,LiMn2(BO3)2,0.4835999999999998
mp-1028379,Mg14NiMo,0.0
mp-677127,YAl6Si18(N15O)2,0.0
mp-24281,InH36C12S6(IO2)3,2.5132000000000003
mp-689938,LiMn2(PO3)5,4.2135
mp-3444,ErTaO4,4.0828000000000015
mp-22482,ErMn12,0.002299999999999969
mp-561983,Eu3OsO7,0.0
mp-1034338,NaMg14SbO16,1.5487000000000002
mp-510494,La5Sn3,0.0
mp-3283,RbNbO3,3.3068
mp-973136,LiSmO3,0.0
mp-976402,NaZnAs(H2O3)2,3.0309
mp-31057,Ho3InN,0.11489999999999954
mp-772813,Ca2Cu2O5,1.0059000000000002
mp-569484,Cs3Ti2Cl9,0.0
mp-9539,EuMgF4,0.4508000000000001
mp-611,Ag3Sn,0.0
mp-557877,C2SeS2O7F6,3.6235
mp-849688,Co2O3F,0.0
mp-1034098,KRbMg14O15,2.1229
mp-9361,RbLaS2,2.6857
mp-13007,PrCrGe3,0.0
mvc-4769,ZnSn2O5,0.8383000000000003
mp-581739,Cs5Mo21Se23,0.0
mp-1033518,CsMg6SbO8,0.0
mp-1026759,LaMg14Mo,0.0
mp-752501,LiSiBiO4,3.0339
mp-19566,Na3Sc2V3O12,3.2084
mp-614481,GdBi,0.0
mp-1026990,Te2Mo3W(Se2S)2,0.0
mp-715508,WO2,2.4572000000000003
mp-745173,Na3Cd4P6H10(ClO8)3,0.010500000000000002
mp-1095461,NdCo3,0.0
mp-768149,DyInO3,1.9871
mp-1076058,Sr4Ca4Mn5(FeO8)3,0.0
mp-2370,PrNi5,0.013300000000000093
mp-554867,Ta2O5,0.2969000000000004
mvc-8977,CaLaFeAgO6,0.0
mp-775526,NaMnPCO7,0.9049
mp-1098958,Mg30VCdO32,1.5006000000000004
mp-777016,LiFeF3,2.624
mp-770815,Cs3YO3,2.6355
mp-773541,Fe10O11F9,0.0
mp-780107,Li7Cr3Fe(PO4)6,1.5433
mp-983908,Er2ZnAu,0.0
mp-1026539,Mg14NbCr,0.0
mp-1031821,Mg6SiNiO8,0.0
mvc-3488,TaF5,5.1436
mp-755117,Ba2IrO4,0.0
mp-30883,V4Zn5,0.011199999999999656
mp-1026885,NaMg14Cu,0.0
mp-690094,Mg3V2O6,1.1945999999999994
mp-767002,Ti5PO11,0.0
mvc-3732,CaCoF5,1.9911000000000003
mp-821,NbO2,0.42600000000000016
mp-1025423,SmGa2Ni,0.0
mvc-617,YMo(WO4)2,1.6296
mp-2184,As2O3,4.009
mp-505105,Cu(HO)2,0.0
mp-556086,Na5FeS4,0.7966
mp-864951,MnAlOs2,0.0
mp-706661,UTi22Fe18PbO76,0.14290000000000005
mp-1029574,Na5OsN4,0.0
mp-752432,Gd3NbO7,2.3856
mp-1028762,TeW2Se3,0.10650000000000004
mp-761849,Na5Li3Ti5O14,2.9587000000000003
mp-1071879,GdBC,0.0
mp-779983,Li7(CoO3)2,0.9991
mp-775205,Li3MnP2HO8,4.1739999999999995
mp-851045,Fe3O5F,0.0
mp-864659,Nd2NiIr,0.0
mp-864893,NdAgHg2,0.0
mp-540728,K2Zn6O7,0.7588000000000001
mp-1077262,TbCu5,0.0
mp-765759,Li5MnO3F,2.0828
mp-14367,AsPO5,2.2442
mp-6684,NaCdPO4,3.2056
mp-29199,BaCuN,0.0064000000000001825
mp-28627,K4Br2O,0.9912
mp-771796,Mn3CuO8,0.0
mp-1093779,KNa2Tl,0.36060000000000025
mp-1029921,Ca3Al3N5,2.557300000000001
mp-23831,NdHSO5,5.5593
mp-566861,Na2TiFe5(Si3O10)2,2.3046
mp-865512,YMgCd2,0.0
mp-1016875,CdRhO3,0.0
mp-772102,Li3MnV(PO4)3,0.0
mp-510674,Eu3NbO7,0.017900000000000027
mp-744014,TiMnFe(PO4)3,2.3224
mp-36600,Ag3SBr,0.3943000000000001
mp-775215,Li10Cr3Fe3(NiO8)2,1.6327000000000005
mp-853200,Li2Mn3(BO3)3,0.0
mp-760678,Sb2H4AuF16,0.8936000000000001
mp-685991,Li5SiP3,1.3803
mp-761977,LiNiPO4,3.1894
mp-21588,Sc2Fe3Si5,0.0
mp-1097285,Cs2AgAu,1.974
mp-28760,KRbS,2.2214
mp-20088,Na4PbO4,1.2998000000000005
mp-1020180,Na2SrMg(PO4)2,5.0055
mp-39239,SrLaMnRuO6,0.0025000000000003912
mvc-8045,MnAs2O7,0.5503
mp-972827,SiBiO3,0.0
mp-758331,NdTa3O9,2.2516
mp-771213,Li4TiCrO6,1.2276000000000002
mp-29499,Re3Te8Cl3,0.8757000000000006
mp-628617,Cs4K2Cu(SiO4)2,0.6454999999999997
mp-29460,Tl3PdCl5,1.633
mp-1094632,MgGa,0.0
mp-1028091,HfMg14Mn,0.0
mp-1096005,Ti2MnZn,0.0
mp-777297,K5H(CN2)2,3.8504
mp-631412,NbRu2Cl,0.0
mp-850776,Fe5O7F3,0.0
mp-1095873,LiZrHg2,0.18630000000000013
mp-9946,ZnS,2.0368
mp-28306,MnBr2,1.5874
mp-1021288,RbLaMg6,0.0
mp-13614,Rb2Be3Cd2F12,5.2365
mp-861550,LiMnPO4,3.0953
mp-761523,Li2Mn2(Si2O5)3,2.9777
mp-999516,MnP,0.0
mp-6726,CsLiSO4,5.442
mp-1078234,BaGe3,0.0
mp-17836,BaNd2BeO5,3.8755
mp-1076424,Sr3Ca(FeO3)4,0.0
mp-7193,Lu2Si2O7,4.8449
mp-510752,CuO,0.14659999999999984
mp-625614,H9BrO4,3.9354
mp-1025589,MoW2(Se2S)2,0.6747000000000001
mp-763137,VOF,0.8776000000000002
mp-616507,Cs2Na2IrO4,0.1876000000000002
mp-504543,SnPbO3,0.0
mp-11784,LaYbSe3,0.0
mp-767988,LiV(CO3)2,1.9665
mp-1097639,Ba2HgBi,0.009499999999999842
mp-759915,Li2BiP3O10,2.5981
mp-680248,Os5(CO)16,1.9933
mp-7621,KTcO4,3.1886
mp-28400,P3Ru,1.0313000000000008
mp-11834,CuNiSb2,0.0
mp-1018030,Sr2SO,2.1896000000000004
mp-866069,MgScRh2,0.0
mp-19469,Na5Tb(MoO4)4,3.938
mp-579837,BaV10O15,0.8319000000000001
mp-755565,HoBrO,3.6527
mp-17485,Ho2Si3Rh,0.0
mp-761370,Li4MnCr(WO6)2,0.6985999999999999
mp-510709,SrAsH3O5,3.8953
mp-8184,Li2ZnGeO4,3.1053
mp-559146,La2MoO6,3.6508
mp-1075011,Mg3Si4,0.0
mp-28778,KScF4,6.0931
mp-1038678,SrMg30BiO32,0.0
mp-1014316,C3N,0.0
mp-1098582,Mg30CrBO32,0.17879999999999985
mp-762991,FeOF,0.40290000000000026
mvc-5948,MgTi2O4,0.0
mp-1030128,Te4MoW3(SeS)2,0.0
mp-976185,NaBeO3,0.0
mvc-4071,Al2Cu3(SiO4)3,0.11030000000000052
mp-555791,SiO2,5.7384
mp-1079760,Pd3N,0.0
mp-569522,MnP4,0.4802999999999997
mp-975385,RbBO3,0.0
mp-776792,NaV3P2O13,2.1006
mp-1039698,NaMg30BiO32,3.240099999999998
mp-566661,CrHg3(PbO4)2,1.8827
mp-1038353,Mg30AlZnO32,0.10770000000000124
mp-31523,K2Co2(SO4)3,2.7504
mp-626720,BaH4O3,4.2073
mp-34730,Zn(FeO2)2,1.6391
mp-1095828,ZrGaIr2,0.0
mp-1073199,Mg2Si3,0.0
mp-28952,PdSO4,1.0661
mp-773072,Ba8LiNb7O24,0.0
mvc-11089,VO2,0.0
mp-1093831,ZrCuRh2,0.0
mp-1093712,Sc2AlHg,0.0
mp-1029313,NaRuN,0.5001000000000002
mp-23453,Hg6Sb5Br7,0.9445
mp-1032908,CaYMg6O8,0.0
mp-626843,Ni(HO)2,1.87
mp-20231,CeInPd2,0.0007000000000001452
mp-763255,LiCoSiO4,1.3725
mp-761576,Li2MnV2(PO4)3,0.5599000000000003
mp-1028044,CsYMg14,0.0
mp-571103,In5AgSe8,0.25319999999999965
mp-972455,TmLuIn2,0.0
mp-10196,Ta2N,0.0
mp-1097189,Sr2AgSn,0.0
mp-1039419,MgBi,0.0
mp-1035470,RbLiMg14O15,2.2211000000000003
mp-627355,CeGePt,0.0
mvc-10214,TaCuO4,0.26060000000000005
mp-782001,Li8La4TiNb7O28,0.0
mvc-11882,Al(CuO2)3,0.0
mp-864831,NbZnRh2,0.0
mp-1098205,Mg6GaB,0.0
mp-675028,K(OsO3)2,0.0
mp-753741,Li3CuS2,1.9031
mp-505629,Cr3SiNi2,0.0
mp-566892,KMoPClO5,2.01
mp-20197,Cr2GaC,0.0141
mp-2893,Dy(SiRh)2,0.0
mp-5710,Ag3Te2Au,0.1767000000000003
mp-562330,Mn3Ag2(P2O7)2,1.9832
mp-779015,SmHIClO13,0.13069999999999998
mp-1022064,Mg6CrCu,0.0
mp-35249,Sm2Hf2O7,3.8432
mp-989504,Na2LiNF6,2.7239
mp-985697,Ba3Si6(NO6)2,4.6341
mp-566645,MnH6SO6,4.4475
mp-1078968,LaCoSb2,0.0
mp-631703,BaRe2Sn,0.0
mp-19083,NaVO3,3.2338000000000005
mvc-6867,Si2BiO6,0.2619
mp-865841,YbPaPt2,0.0
mp-4955,AlVCo2,0.0
mp-765697,Li2TiFeO4,0.9124
mp-555896,Pr9(SbO)5,0.0
mp-569531,Rb2CuBr3,1.8371
mp-773020,LuP5O14,5.4098
mp-1087554,CeSe2,0.4872999999999998
mp-768755,Li2Sn2(SO4)3,3.9607
mp-29380,K2Te2As,0.9604
mp-559327,Na2CoGeO4,1.8251
mp-1028042,NaYMg14,0.0
mvc-9203,CaMnBiO5,1.1009
mp-1033104,Mg6AlZnO8,0.0
mp-14532,NaTa3O8,2.68
mp-865439,Th3O2,0.0
mp-17939,Na2SiF6,6.8676
mp-1026414,Mg14TiSb,0.0
mp-865184,LiScPd2,0.0
mp-767332,LiCoPO4,2.9865
mp-680754,Ca5CuPb3,0.0
mp-1666,Th2S5,1.7022000000000004
mp-772116,LaMgI5,2.6293
mp-555231,Ba3Bi2(PO4)4,3.7865
mp-542391,Tm(SiNi5)2,0.0
mp-868117,NaCoO2,1.9714
mp-25703,Sr2MnGe2O7,2.3461
mp-27634,TiBr4,2.7818
mp-1073043,Mg2Si3,0.0
mp-764514,LiFe2(BO3)2,1.5942999999999998
mp-1035923,SrYMg14O16,0.14730000000000132
mp-35091,Li31Zr2Sb13,0.018200000000000216
mvc-8585,MnZn(GeO3)2,1.2945
mp-1330,AlN,4.417499999999999
mp-763597,Li4Cr3Co3(NiO8)2,0.9629
mp-761679,Li8V3P8O29,1.2028
mp-696618,CaB2(H2O3)2,5.5553
mp-38322,Mg(IO3)2,3.4734000000000003
mp-567479,Ho4InIr,0.0
mp-778916,Li8Mn7Fe(BO3)8,2.974
mp-867188,RbNpCuS3,0.0
mp-764850,Li3(NiO2)4,0.2835000000000001
mp-11736,ZrSiO4,4.0306
mp-5572,Ho2Te5O13,3.0071
mp-2565,S2N,1.6968
mp-20728,GdNi2B2C,0.007600000000000051
mp-642999,TmH3(CO2)3,3.9339
mp-561775,Ca3CoRhO6,0.0
mp-1016334,SrMg6B,0.0
mp-761557,Co5SbO12,0.0
mp-773191,Li6Cr3Sb3O16,0.5375999999999999
mp-25023,Mn2Si(P2O7)2,4.2246
mp-565761,SrV4(Bi3O10)2,2.8852
mp-998429,NiAgF3,1.8227
mp-505536,CeTe2,0.007099999999999441
mp-707176,NaCa2Al2P2H5O11F4,5.4846
mp-973372,MgIn5,0.0
mp-642660,Mg2CoH5,0.19469999999999965
mp-1096328,Y2ZnPb,0.1926000000000001
mp-32048,Li3Mo(PO4)2,4.1545000000000005
mp-772726,Na3CuCSO7,1.2205000000000004
mp-1096441,Ga2CoRh,0.09809999999999963