mpid,formula,gap pbe
mp-706426,Ca2P2H4O9,5.0576
mp-768092,LiVSO4F3,1.5144000000000002
mp-769660,Li2TiFe2O5,1.6363999999999996
mp-763088,Li2MnF4,3.9851
mp-779453,BaNa6O4,1.6482
mp-4223,Na3PO4,4.1727
mp-1022596,Mg6ZnW,0.0
mp-26658,BiP2O7,0.0
mp-769962,Li4TiFe3O8,0.6277000000000004
mp-778706,Fe6O5F7,1.1025000000000005
mp-761970,LiCoPO4,2.8086
mp-565786,Sb2MoO6,1.3984
mp-780156,Li5Mn6(BO3)6,0.7233
mp-754453,LaTiNO2,0.5628999999999991
mp-757840,Ba4(PtO3)3,1.5953000000000004
mp-770759,LiBiCSO7,3.6945
mp-769531,Na3Mn2P2(CO7)2,0.7589
mp-30543,RbAg7S4,0.4418000000000002
mp-531792,LuZr3F15,5.5183
mp-505639,Rb3Ti3Te11,0.02700000000000013
mp-29861,K2Mn3S4,0.0
mp-755043,Al2Si2O7,5.0535000000000005
mp-1026439,Mg14CdGa,0.0
mp-698648,K3(MoO3)10,0.4042999999999999
mp-676130,TlSnF3,2.8207
mp-769070,BaY4Cl14,4.0974
mp-16118,RbDy2CuSe4,0.9258000000000002
mp-24946,CaFeO2,0.4242999999999997
mp-22631,Co2N,0.0
mp-568270,KTiCl3,0.0
mp-565521,NiBiAsO5,3.0150999999999994
mp-556045,KCuF3,0.0
mvc-10756,BaTl(BiO3)2,0.0
mp-862727,Pm2ZnPb,0.0
mp-769926,EuVO3,0.0
mp-1096577,Li2AgGe,0.14180000000000034
mvc-11835,Al14(CuS8)3,0.0
mp-774170,NaLi5Fe2P2(CO7)2,3.8845
mp-765814,LiNi4O4F,2.2406
mp-21569,HfReSi2,0.0
mp-31024,Sc5CCl8,0.03779999999999984
mp-723064,Ti3(BiO3)4,2.3715
mp-649729,NbO2,0.1858
mp-10784,RbErSe2,1.9816
mp-680343,Ta21Te13,0.0
mp-1078,CaCd2,0.0
mp-763336,Li2Cr3CoO8,0.6019000000000003
mp-757836,BeH2SeO4,4.753
mp-768108,Na2FePCO7,2.4156
mp-778539,Li2CoBO4,0.9599000000000002
mp-640791,Nd5Si4,0.0
mp-761471,Co5O8,0.0
mp-353,Ag2O,0.0
mp-721369,AlH12(OF)5,4.4686
mp-1096193,Zr2CrTc,0.0
mp-972180,YbMgIn2,0.0
mp-21408,Gd(SiOs)2,0.002699999999999925
mp-3700,LiYF4,7.8341
mp-19017,LiFePO4,4.1775
mp-753813,Ca(ClO3)2,5.0397
mp-565480,Rb2V2Cu(PO6)2,0.893
mp-1026709,SrMg14B,0.0
mp-1006112,Na3Co,0.0
mp-23383,Rb2TeBr6,2.0549
mp-997012,CuPdO2,0.0
mp-723120,BaH6C4O7,2.6483
mp-24858,Ba2UCoO6,0.06269999999999952
mp-764729,Li7VO5F,1.8165
mp-976223,K3Sr,0.0
mp-720267,BaB2H10O9,0.5958000000000001
mp-32374,LiNiP2O7,0.0
mp-640956,Eu(Sb3Os)4,0.0
mp-676517,La3U2O10,0.21050000000000046
mvc-14117,CaNi2(P2O7)2,0.05469999999999997
mp-771045,La2SiO5,4.0614
mp-567919,Al45V7,0.0
mp-19453,Te2MoO7,2.8149999999999995
mp-565706,KNa2NiO2,1.4729
mp-849365,YNb2NO5,2.4376999999999995
mp-19817,Y3InC,0.0
mp-1079163,Mg7Nb,0.0
mp-1065609,GdTlTe2,0.9397000000000002
mp-11665,Ce2(Zn2Ge)3,0.0
mp-11237,ScAg,0.0
mp-1098062,CsHfMg14O15,0.0
mp-38418,Tm2Ti2O7,2.7069
mp-1026611,CsMg14B,0.0
mp-9160,La4Au2O9,1.9691
mp-30607,ErMg2,0.048000000000000036
mp-1079829,Ti2CdO6,0.0
mp-866663,K3TaF8,3.8153
mp-18701,Ba3YRu2O9,0.0
mp-777285,Li9P8W3O29,3.6747
mp-773335,Li4Mn3FeO8,0.0
mp-630265,U3(Si3Pd10)2,0.0
mp-866155,TiAlRu2,0.0
mp-669722,Nd(Sn2Rh)2,0.0
mp-10834,RbNd2CuS4,0.9387999999999996
mp-675711,Li(Mo3S4)2,0.0
mp-766655,Li4V3P8O29,0.4515
mp-691038,Cu4H24C13N7Cl,2.237
mp-625405,V2H3O5,1.4956
mp-763356,Fe4O7F,0.0
mp-20050,InP3,0.0
mp-707905,PH7N2O3,4.5874
mp-962058,YSeCl,1.8963
mp-6301,Ba3CeRu2O9,0.0
mp-696379,BH3OF4,7.6572999999999976
mp-769867,ZrCrO4,0.5910000000000002
mp-568603,In5Se5Cl,1.0406
mp-24926,Tl2CrO4,2.5156
mp-1422,GdPt2,0.019000000000000128
mp-621930,Cs2SrN12,3.975
mp-1033335,Mg6NbCdO8,0.0
mp-20533,SrIn2Pt,0.0
mp-1019253,SmSe2,0.0
mp-672653,Nb6Ni16Ge7,0.0
mp-1097081,Al2FeTc,0.0
mp-1097505,InSnHg2,0.0
mp-1016475,CsMg6Ga,0.0
mp-645682,Co5Se4(BrO6)2,2.4476
mp-19489,SmCo(BO2)5,3.1399
mp-1094440,Mg2Zn,0.0
mp-975051,Rb3Ag,0.0
mp-756098,BaSrI4,3.6126
mp-11538,TbAlNi,0.0
mp-1016931,VZnO3,0.0
mp-1080351,CeSe2,0.9359999999999999
mp-1029066,Te2MoWSe2,0.12399999999999968
mp-32450,VBr2O,0.733
mp-27834,Tl2PtCl6,1.7275
mp-996979,BaAgO2,0.0
mp-566835,Mn(IO3)2,2.5617
mp-673698,Cu2HgI4,0.4197
mp-22412,Ba(MnGe)2,0.013800000000000257
mp-18779,Na2CrO4,2.8677
mp-1016833,CaRhO3,0.0
mp-973756,Lu2Mo2C3,0.0
mp-773546,NaLi2MnPCO7,3.5574000000000003
mp-1078581,ThAlNi,0.0
mp-770703,LiSbWO6,2.4585000000000004
mp-1003636,NaMn4O8,0.08029999999999983
mp-616501,InCu6ClO8,0.0
mp-5163,LaRhO3,0.5939999999999994
mp-17,Cr,0.0
mp-758836,Li4Ti3O8,1.7453
mp-1096474,La2CoIr,0.20920000000000005
mp-19634,Sr3ScNiO6,0.0
mp-9090,CsYbS2,0.0
mp-1009876,TcC,0.0
mp-641896,Mg(FeO2)2,1.5535
mp-2423,US,0.0
mvc-6469,CaCu(SiO3)2,0.4828000000000001
mp-867210,LiCa2Hg,0.0
mp-546292,YbClO,0.0
mp-761484,LiFePO4,3.523
mp-14652,Cs2P3,0.8419000000000003
mp-977148,LiBeH3,4.3798
mp-774072,Fe7O3F13,0.943
mp-765910,LiFePO4,3.4131
mp-561196,ZnS,2.027
mp-1039355,CeMg2,0.0
mp-675093,Hf2N2O,2.0868
mvc-1378,Ba2Mn3O7,0.0
mp-771477,Li6Mn3Sb3O16,0.27810000000000024
mp-761528,LiMnPO4,3.0610000000000004
mp-859126,Ba3CaI8,2.949
mp-27575,Te5(O2F11)2,2.867
mp-997031,MgCuO2,0.0
mp-555750,Nd2SnS5,0.0
mp-705636,Li3Mn10O20,0.0
mp-611224,VS2,0.0
mvc-5625,ZnP2WO7,0.0567000000000002
mp-504922,UPbO4,1.5100999999999996
mvc-15387,WN,0.0
mp-29332,Pt(PbO2)2,0.5213999999999999
mp-585261,LiMo4(P2O11)2,0.3287000000000001
mp-1026642,RbMg14Cr,0.0
mp-772566,Ho2(WO4)3,4.7214
mp-694910,Fe35O36,1.1300000000000003
mp-1098561,Mg30NbBiO32,0.0
mp-1100163,RbMg6Mo,0.0
mp-28112,In5Cl9,2.9777
mp-565656,Na2HoMoPO8,4.1948
mp-570679,TaI5,1.1727
mp-861580,LiNi(PO3)3,4.3664
mp-770349,LiVSiCO7,1.7103
mp-865793,LiSc2Rh,0.0
mp-1013730,Cd5(S2Cl)2,1.7229
mp-504389,Li7Cr4P9O32,2.8915
mp-680169,Na21S7Cl(O14F3)2,4.905
mp-776840,Li3FeF5,3.4968
mp-7928,K2PtS2,1.2262
mp-541619,Na2TeO3,3.2684000000000006
mp-756515,Li4Nb(TeO4)3,0.0
mp-764454,LiMnV(P2O7)2,1.3469000000000002
mp-6795,Ba5Ho8Zn4O21,3.3644000000000003
mvc-8936,LaMgFeCuO6,0.0732999999999997
mp-1096633,K2NaHg,0.0
mp-1022869,Mg6MnGa,0.0
mp-865840,Ti2TcIr,0.0
mp-762146,Li3V3P8O29,1.0087
mp-676609,Ga6SnTe10,0.7473000000000005
mp-850138,LiMnP2O7,0.4616000000000002
mp-1036838,SrMg30NiO32,3.4880000000000004
mp-1075464,Mg5Si6,0.0
mvc-16556,Ca4Mn2O7,1.3693999999999995
mvc-6885,MgSi2NiO6,3.7430000000000003
mp-754401,Al2O3,4.2235000000000005
mp-29709,Hg3PO4,1.0413
mp-556325,TeAs(ClF2)3,3.9734
mp-27845,CaSe2O5,3.4779000000000004
mp-566516,Sr4Cr3O9,0.0
mp-1072655,ZrCu2,0.03990000000000027
mp-7181,CsSr2Ta3O10,2.3212
mp-1027036,Te6MoW3S2,0.0
mp-861700,Li12MnV3P4(CO7)4,2.7205
mp-1075723,Mg5Si9,0.0
mp-11253,NaSnAu,0.0
mp-561058,Na3Ga(PO4)2,4.0408
mp-1077477,CeCo5,0.0
mp-15968,Sm(CoSi)2,0.0
mp-1096396,Hf2BeRe,0.0
mp-989388,Rb2SCl6F,0.0
mp-961659,TiSiPd,0.7690000000000001
mp-3797,K3AsS4,2.1308
mp-767657,Li4Ti2Nb3Co3O16,0.7981000000000003
mp-25032,Mn2GeO4,1.3602999999999996
mp-1094076,SrEr2O4,3.111
mp-1075013,Mg3Si4,0.0
mp-763236,Co6O5F7,0.0
mp-4988,TlAsS2,1.7379000000000002
mp-687204,NdReMoO8,3.3322
mp-703260,PbWO4,3.6216
mp-1098280,RbMg6Si,0.0
mp-8515,BaSm2PdO5,2.1423
mp-769628,Li4V3CrO8,1.9346
mp-865355,Zn3Pt,0.0
mp-1021904,Mg6TiNi,0.0
mp-782690,Mn6O11F,0.0
mp-757551,Li3Sn3(PO4)4,0.2523999999999997
mp-33107,SF4,1.5276
mp-8622,Rb2PtSe2,1.0034
mp-568922,Ce7C3I10,0.0
mp-631510,HfBe2Bi,0.0
mp-862967,PmTlRh2,0.0
mp-975656,Pr2NiIr,0.0
mp-1021905,SrMg6Ni,0.0
mvc-9691,CaSb2P2O9,2.2597
mp-1095149,LiLaBi2,0.0
mp-1018027,VN,0.0
mp-1025564,LuAl2Pd5,0.0
mp-1080179,Pr(NiBi)2,0.0
mp-704224,Li2Ni(PO4)2,0.0
mvc-282,Sr2YTaCu2O7,0.0
mp-530613,Li4Mg23B54,0.013700000000000044
mp-1039670,RbMg30WO32,3.1284
mp-764453,LiFe4(BO3)4,1.4448
mp-1093829,CaYPd2,0.0
mp-570453,Ba4W(N2Cl)2,2.208
mvc-12580,MgMn4O8,0.0
mp-505330,Tm2Mn3Si5,0.0
mp-1096056,InAgPd2,0.2847999999999997
mp-1569,Be2C,1.1636999999999995
mp-21023,Ti3SnC2,0.029799999999999827
mp-2611,BaGe2,0.0
mp-1040014,LiMg30BiO32,3.4853
mp-850093,Li2VCr2O6,1.3087
mp-675734,Li7B18O,0.0
mp-762423,Li5Fe5O12,0.0
mp-21164,SrGePt,0.0
mp-770590,VGa2O5,1.9119
mp-851017,Na2CoO3,0.4148000000000001
mp-1076484,K3Na5V2(MoO4)6,0.0
mp-685878,Mg9(In13S24)2,0.16159999999999994
mp-581601,ZnS,2.0265
mp-771552,Li5Ti2Mn5O12,0.11389999999999967
mp-776770,LiFeF5,0.4237000000000002
mp-977013,H6PbCI3N,1.6778
mp-690848,CdH20C2S2(NO2)6,0.2538
mp-778557,V2O3F,1.1818
mp-1078439,CeIn7Pt2,0.0
mp-759224,Li5CuF8,0.7916000000000001
mp-562025,Ba2FeCoF9,2.0227
mp-1094705,YSn,0.0
mp-977357,Ta2ReRu,0.0
mp-765268,Mn2F7,0.5413999999999999
mp-1019716,CsLi4(BO2)5,4.4885
mp-559127,K2Zn2Si8O19,4.2179
mp-38417,Ba(CeS2)2,0.007000000000000561
mp-762833,LiFePO4,2.8914
mp-762276,Li2NbCr3O8,1.9446
mp-672375,ThNiSn,0.0
mvc-13298,Mg2TaNb2O8,0.1711999999999998
mp-505612,Bi2W2O9,2.3424
mp-704417,Rb7U8V2ClO32,1.5465000000000002
mp-27515,TlSb3S5,1.5863
mp-566240,Na5WNO4,3.0455
mp-13434,CaMgNi4,0.0
mvc-10669,Mg(SnO2)4,0.0
mp-1093968,Y2ZnPt,0.0
mp-8800,TlCu3Se2,0.11929999999999995
mp-1037872,CaMg30TiO32,0.18040000000000056
mp-561635,CsSmSiS4,2.8414
mp-556425,SbF4,3.4408000000000003
mp-31654,Li3Cr3(PO4)4,1.7618000000000005
mp-1031098,LiHfMg6O7,0.0
mp-863032,Sm3SiAgS7,1.7935999999999996
mp-767328,Li5Fe5Si7O24,2.373
mp-1072381,LuNi4Au,0.0
mp-5525,KAlO2,3.9994
mp-16818,Rb2Cd3Se4,1.6720999999999997
mp-557613,K2Mn2Be3F12,4.5317
mp-979291,TaZnOs2,0.0
mp-771541,Gd2W4O15,3.4916
mp-19528,MnSiO3,2.8721
mp-1093802,LiAgPd2,0.1825000000000001
mp-554318,BH11C4BrNF4,5.1176
mp-771985,Ni7(PO4)6,0.0
mp-972456,Sm3V,0.0
mp-568681,Mg8BPt4,0.0
mp-985547,Ac3Sm,0.0
mp-29241,Ca3SnO,0.0
mp-774189,Li8Mn7Fe(BO3)8,2.9742
mp-555833,Hg3As8(S4Br3)2,2.0132
mp-772096,TmTe3O8,0.0
mp-9081,CsNdS2,2.1496
mp-696066,Ba2Zn(HO)6,2.6587
mp-761605,Li5V3(CoO5)2,0.9904000000000002
mp-1095168,PrCuSn2,0.0
mp-763290,V3(O2F)2,0.6421999999999999
mp-7029,SiO2,5.7942
mvc-6081,BiO2,0.0
mp-760092,SbOF,3.0222
mp-770147,Li3FePCO7,3.3393
mp-1038708,BaSrMg30O32,3.8160000000000003
mp-698,U3O8,0.0
mp-617281,In4Te3,0.12239999999999986
mp-1037844,Mg30MnCrO32,1.8731000000000009
mp-545529,NdBi2ClO4,1.1834999999999996
mp-22052,Zn(InS2)2,1.3308999999999995
mp-30910,Mg2Ga5Cu6,0.0
mp-1099687,K4Na4Nb3W5O24,0.0
mp-1008624,YBiPd,0.0
mp-7157,Tb(AlGe)2,0.0
mp-697888,Na2CdH4(SeO5)2,2.8694
mvc-85,Ca2TaNb2O8,0.19040000000000035
mp-761913,Li7V3P8O29,0.5627
mp-569436,MoCl5,0.0
mp-775568,Na3Ni2P2(CO7)2,0.0
mp-565516,VP2O7,1.518
mp-740735,P2H10N2O7,4.6656
mp-863427,Li3Si2BiO7,3.2388000000000003
mp-558226,H2O,5.556800000000001
mp-699540,YbCu(MoO4)2,0.4370000000000001
mvc-2970,Ba2YTlCr2O7,0.0
mp-3678,Tb(SiRu)2,0.0
mvc-6670,Zn2CrWO6,1.5237000000000005
mp-774483,Zr2(PO4)3,0.0
mp-1039439,CaMg,0.039899999999999824
mp-1072982,GdGe2,0.0
mp-1095496,ErGa4Ni,0.0
mp-850495,Li2Si4(NiO4)3,2.8417
mp-761976,LiCoPO4,2.6024000000000003
mp-763751,LiCoNiO4,0.0
mp-780246,Na2Bi4O7,2.5380000000000003
mp-1028036,YMg14V,0.0
mp-1087,SrS,2.5006000000000004
mp-31953,Li2MnP2O7,3.9679
mp-754698,NbO2,0.0
mp-1032956,CaMg6SnO8,0.0
mp-542633,GdCo2,0.0060999999999999934
mp-1038287,Mg30MnCoO32,2.4437999999999995
mp-34011,Ca(HoS2)2,2.1913
mp-862292,Ce3Zn11,0.0
mp-4054,YAl3Ni,0.0
mp-32578,Ce2Se3,0.00010000000000065512
mp-1096229,La2ZnIn,0.0
mvc-10559,Be3Fe2(SiO4)3,1.4849
mp-766929,Sn4P2O9,2.2198
mp-10003,Nb4CoSi,0.0064000000000001825
mp-865112,NaPrTl2,0.0
mp-561861,KMg2V3(CuO6)2,0.3007
mp-704459,Na2Cr2O7,2.5253
mvc-384,Ca(Cu2O3)2,0.0
mp-1096666,Ba2AsBr,0.7228000000000001
mp-743588,Mn3H24(O3F2)4,0.9821
mp-1009769,RuN,0.0
mvc-11435,Mn2AlO4,0.0
mp-861589,Li2Ni(PO3)4,4.6334
mp-1027765,TeMo2SeS2,0.0
mp-554175,SiO2,5.7494
mp-1023508,CaMg15,0.0
mp-865736,YbBiPd2,0.0
mp-997551,Li7Fe7P6(O8F)3,3.1594
mp-11260,Ti3Au,0.0
mp-761469,LiFePO4,3.4253000000000005
mp-570026,ErAgGe,0.0
mp-29234,InTeI,1.5625
mp-758332,CaGd4O7,2.8515
mp-5475,NaTaN2,1.2934
mp-686330,Ba10Mg3ZrTa6O30,0.0
mp-20311,FeSe,0.0
mp-1025986,Te2Mo3S4,0.0
mp-568817,H9C4Se2N,3.5264
mp-611990,KMnF3,2.7804
mp-23095,Ca3Cu2(ClO2)2,0.0
mp-697758,LiFeP2O7,2.5246000000000004
mp-636256,LaCu6,0.0
mp-24936,Sr3Fe2Br2O5,1.0993
mp-28104,Fe2MoP12,0.004599999999999938
mp-556374,K2U3(IO5)4,1.8921
mp-21109,LaAl4,0.0
mp-861172,LiFe(SiO3)2,2.4272
mp-764438,Li4CrNi5(PO4)6,0.0
mp-862696,CeGa3,0.0
mp-3284,CeSi2Pt,0.0
mp-777595,LiFeF4,3.4054
mvc-3668,Zn3Cr2O7,0.4205000000000001
mvc-15848,MnZnF6,2.2795
mp-3869,TbBRh3,0.01839999999999975
mp-1094456,MgZn2,0.0
mp-27466,LiTe3,0.18930000000000025
mp-1099978,La6Sm2Cr5Fe3O20,0.4482999999999997
mp-1021298,KMg6Cd,0.0
mp-1038876,Ce3Mg,0.0
mp-1025340,Cu2WSe4,1.2631
mp-573677,Ba2Li3TaN4,2.3976999999999995
mp-1098444,LaHfMg30O32,0.0
mp-33018,Rb3Sb,0.4317
mp-754672,TiO2,2.9809
mp-542609,AgAsS2,1.5178999999999996
mvc-13330,V3O7,1.4381
mp-1076543,Ca7MgTiMn7O24,0.0
mp-8128,NaNdO2,3.3339
mp-866077,MgSc2Cd,0.0
mp-33569,Sr(LaSe2)2,1.8829
mp-771919,LiFeO2,0.3056000000000001
mp-697873,SnHC2O3,2.1353000000000004
mp-29551,Na3Hg,0.0
mvc-11244,CoS2,0.0
mvc-11864,Rb6Al2(Sb2O7)3,0.0
mp-31996,LiMn2(PO4)3,1.029
mp-850012,LiFeF4,4.0037
mp-973653,Lu2ZnAg,0.0
mp-864770,Ta2MoOs,0.0
mp-1093762,KNa2Pb,0.0
mp-559962,SiO2,5.6777
mp-3503,Li6WN4,3.0573999999999995
mp-11820,BaNa2,0.00969999999999982
mp-1018899,PrSbPd,0.0
mp-1093702,KTl2In,0.4712000000000001
mp-1084761,Cr2InPd2,0.0
mvc-8643,CaFe(GeO3)2,1.6032000000000002
mvc-6329,Ca(CuO2)2,0.5114000000000001
mp-28641,ThB2O5,4.8186
mp-10645,TbSe,0.0
mp-532443,Li5V5Cl16,1.1269
mp-1080042,IrC4,0.0
mp-768240,BaY2F8,7.0525
mp-703567,TiH12N2(O2F3)2,3.8263
mp-611316,AsN(OF3)2,2.6593
mp-706670,AlCuH28S2ClO22,0.8261000000000001
mp-14560,Ca2Ta2O6F,0.0
mp-1016231,CsMg3,0.0
mp-10000,Hf2S,0.0
mp-762585,LiFeSiO4,2.3506
mp-545750,Li2PdO2,1.1825
mp-1098745,CaHfMg30O32,0.0
mp-601148,I,0.0
mvc-14257,Mo3O8,0.0
mp-695597,NaMg3Si4O11F,3.1069999999999998
mvc-13124,Mg3V2(BiO6)2,0.0
mp-975170,RbHg3,0.0
mp-23214,CaCl2,5.3949
mp-518,Ti5Re24,0.0
mvc-16057,Sr4CaFe2(SO3)2,1.0941999999999994
mp-625815,H8N2O,3.9425
mp-770351,Tb2(WO4)3,3.9217
mp-541785,GePdS3,1.3072
mp-704125,Nd2Zr3(MoO4)9,3.4865
mp-22164,PrNiSn,0.0
mp-999206,ScAl,0.0
mp-756334,K2Sr2O3,1.9508
mp-559180,Ba2Cu(BO3)2,0.0
mvc-16794,Ca(NiS2)2,0.0
mp-961698,LiZnP,1.2970999999999997
mp-504100,CuO2,0.0
mp-1075469,Mg5Si6,0.0
mp-42020,BaYMnCoO5,0.5815000000000001
mp-569941,Ce3Sb3Au2,0.0
mp-998418,MgAgF3,2.192
mp-1009223,NaAs,0.0
mvc-6773,Zn(CuO2)2,0.0
mp-761779,K9(WO3)20,0.0
mp-1026016,Te2Mo2W(SeS)2,0.0
mp-761445,Li4Mn3Cr3(NiO8)2,1.1860999999999997
mp-11310,CdNi,0.0
mp-1084804,Nd(BC)2,0.0
mp-768059,Li7Ni9O16,0.0
mp-763767,Fe5P3O13,1.4787
mp-764320,Li5MnOF5,0.5905000000000002
mp-1079667,Tm2CoGe2,0.0
mp-690591,Na3(CoO2)4,0.0
mp-12701,NdSn2,0.01360000000000028
mp-3803,Ta4AlC3,0.0
mp-675300,Ho2Zr2O7,2.8437999999999994
mp-20236,DyIn3,0.0
mp-18162,Li(CuO)2,0.0
mp-31554,Co3(PO4)4,0.0536
mp-28070,Rb2TeI6,1.6225
mp-771418,Na2VAsCO7,2.1657
mp-620029,MoCl2,2.4548
mp-1016580,Mg6NbW,0.0
mp-674465,K2SrCl4,4.988099999999998
mp-764118,Li3V3P8O29,0.892
mp-22846,In5S4,0.0
mp-765781,LiVF5,1.7843
mp-773278,K3CoPCO7,2.5829
mp-1035009,Mg14SiNiO16,0.0
mp-764251,NaLi2CoPCO7,2.9398
mp-773266,Li7Ni5O12,0.5288999999999997
mp-554071,Na8Nb2Cu4S21,1.1534
mp-778346,Li2MnF4,3.6791
mp-674334,Ca2SiO4,4.3743
mp-30133,Ba(CuTe)2,0.6006999999999998
mp-17691,Cu3SbS3,0.9982999999999996
mp-998308,CsScBr3,0.0
mp-1096586,ZrZnIr2,0.0
mp-553998,Ba2Fe3F10,3.4795
mp-677238,Th10N9F13,2.0872
mp-1099905,La2Ti2O5,0.0
mp-554759,SrBNO,3.3960000000000004
mp-776882,V2O5,1.7958
mp-568067,NiPt,0.0
mp-743266,CaNdMn2O6,0.0
mp-705751,La12Mn11O36,0.04159999999999986
mp-558854,NbFeF6,0.002600000000000157
mp-4508,ErInPd,0.027099999999999902
mp-567430,TlCoCl3,0.0
mp-1072192,TiS2,0.0
mp-773377,LiFePO4,3.4778999999999995
mp-611385,Rb2CoF4,0.0
mp-1024073,K2Sn3O7,1.9130000000000005
mp-34146,Co2CuO4,0.04039999999999999
mp-6856,Be3Zn4Si3SO12,3.9654
mp-566524,Rb2MoSeO6,3.1275
mp-7888,Sr2HoReO6,0.0
mp-1378,LiC,3.2727
mp-1028512,TeW2S3,0.0
mp-778533,Li2MnF5,2.519
mp-776623,LiV2F7,2.1377
mp-1080714,Li2AgSn2,0.0
mvc-9212,CaBiMoO5,1.6326999999999998
mp-765738,K4Li5Mn2O8,0.5408
mp-776713,Li3Mn4(BO3)4,0.04989999999999983
mp-1025911,Mo2WS6,1.2926000000000002
mp-1032105,Mg6TiCuO8,0.0
mp-560310,SbPOF8,4.6913
mp-694926,CaLa9Ti5Cr5O30,0.0
mp-23884,SrGe(HO2)2,4.519299999999999
mp-11687,VTe2,0.002400000000000624
mp-10124,Tb(Ni2B)6,0.0
mvc-13129,Ca2CoRhO6,0.3287
mp-1028526,TeWS,0.0
mp-1392,ZnP2,0.7455999999999996
mp-865629,Li2CeAl,0.0
mp-631364,TaOsPb,0.0
mp-5479,RbAlF4,6.8752
mp-1098398,KHfMg30O31,0.0
mp-767964,Li2Fe(SiO3)2,3.314
mp-683922,Ce6Ge9(BO15)2,0.0
mvc-3994,CaCoO3,0.0
mp-989636,BaWN3,1.0862000000000005
mp-1093657,ScBePt2,0.0
mp-684056,Ti4(PO5)3,0.0
mp-1030163,TeMoWSe3,0.0
mp-647164,Cu12Sb4S13,0.0
mp-861527,Li2CrFe(PO4)2,2.2917000000000005
mp-29713,NbTeCl9,2.1697
mp-1025225,ErGa5Co,0.0
mp-6692,Ba2PrSbO6,3.771
mp-1075573,Mg5Si6,0.0
mp-20226,UGeIr,0.0
mp-769420,LiCr2(PO4)2,0.0
mp-1079032,Ag2IO6,0.0
mp-13264,Sm2Mo2C3,0.0
mp-707720,MgH40C10Br2(N2O)10,4.8406
mp-1021876,Mg6NbNi,0.0
mp-1025747,Te2MoW2(SeS)2,0.0
mp-559014,Nd4GeO8,3.5008
mp-561249,Ba17Er16Zn8Pt4O57,2.3049
mp-647374,Sb2Pb2O7,0.0
mp-865738,LiPrHg2,0.0
mp-1028978,MoWSe4,1.0175999999999998
mp-8958,RbPd2F5,0.2456
mp-31328,MnInPd2,0.032399999999999984
mp-11370,ErIn,0.0
mp-561086,CaSiO3,4.707999999999998
mp-568055,Nd(PRu)2,0.0
mp-540467,Co(PO3)4,0.006900000000000017
mp-568723,Rb4CdBr6,3.1975
mp-764048,Li4Fe2Ni3Sb3O16,0.6627000000000005
mp-767217,LiMn(PO4)2,0.3380000000000001
mp-31289,Bi5NO10,2.6161
mp-774104,FeNi(PO4)2,0.0
mp-698296,UH12C4SN2O9,2.2077
mp-1093897,Li2LaAl,0.0929000000000002
mp-1034905,RbCeMg14O16,0.0968
mp-15218,Cs2TaAgS4,2.6338
mp-686710,NiH6C2(SN2)2,0.5696000000000001
mp-1079072,Mg3In,0.0
mp-1035353,LiMg14BO15,0.9119000000000002
mp-764944,LiMn(CO3)2,1.6734
mp-20719,EuHg2,0.0
mp-1073996,Mg6Si5,0.0
mp-1099107,SrMg6Al,0.0
mp-773797,Li2Cr5O12,0.5972000000000001
mp-1096153,Ba2TlHg,0.1029
mp-566333,Na3Fe2Mo5O16,0.0
mp-1080525,FeB,0.0
mp-865327,TmHg3,0.0
mp-8613,MnPS3,0.24849999999999994
mp-776854,Li4Nb3Co3(SnO8)2,0.5170999999999997
mp-850079,Li3Fe4O3F5,2.4718
mp-754883,KHoO2,3.9758
mp-10266,ZnFe3C,0.0
mp-765772,V3OF11,1.6720000000000002
mp-583724,Yb7Al5Ge8,0.0
mp-655834,MnSbSe2Br,0.1429999999999998
mp-715514,V2O3,1.5804
mp-34656,Cd(CN)2,5.9948
mp-1035244,Mg14CuCO16,0.0
mp-867053,CaSnS3,0.0
mp-17975,KSrPO4,5.0889
mp-1077439,FeSn2,0.0
mvc-6936,SbO2,0.0
mp-768026,LiVWO6,2.8725
mp-540433,Li2Fe3(P2O7)2,4.035
mp-19279,Li2MnO2,2.4357
mvc-14446,V2ZnS4,0.0
mp-1039148,CaMg,0.10119999999999996
mp-1073363,MgSi2,0.0
mp-574822,NaC4N3,3.5561
mp-1094865,MgTi3,0.0
mp-781955,Li2Mn3(BO3)3,0.1837
mp-30537,TbP5O14,5.362
mvc-5221,Mg(SnO2)2,1.3004999999999995
mp-1080632,CeSe2,0.9486
mp-607111,AlPt3,0.0
mp-561859,Dy2Te4O11,3.2494
mp-20441,Mn2Co2C,0.0
mp-30977,B5H6Br,3.0316
mp-622251,Ba2CaFe2CuF14,0.9529
mp-10350,BaNdCuBO5,0.0
mp-753552,Cu4PtO5,0.0
mp-1069462,Yb(MnSi)2,0.0
mp-672373,La3Co4Sn13,0.0
mp-1080363,CeSe2,1.0545
mp-761156,Li3La5Ti6Nb2O26,1.8854999999999995
mp-23267,BeCl2,6.4946
mp-978973,Sm2ZnHg,0.0
mp-754587,K2Be2O3,3.3025
mp-1080778,K2Re,0.0
mp-769633,NaFePCO7,0.06909999999999994
mp-1031348,KMg6TiO8,0.0
mp-31832,Li3Fe2(PO4)3,2.2235
mp-776830,Li3V4F19,1.3893
mp-558452,V4GaS8,0.0
mp-22636,TaNiGe,0.017999999999999794
mp-849532,Li4Co3OF11,1.0743
mp-769812,Tb2Mn2O7,0.8691
mp-754116,BaY2Br8,4.092499999999999
mp-761948,Li3V3P8O29,1.1787999999999998
mvc-15901,MnAlO3,0.6812000000000005
mp-20132,InHg,0.15310000000000026
mp-19272,TbCrO4,0.3174000000000001
mp-567370,Ce3Se4,0.010400000000000631
mp-1097298,HfSiTc2,0.0
mp-22048,Pt2PbO4,0.00649999999999995
mvc-8023,Fe2(MoO4)3,2.4279
mp-560341,EuSi2(NO)2,0.6398000000000001
mp-6528,Cs2NaAlF6,6.697
mvc-3761,Mg2Cu2O5,0.0
mp-1039292,Ca3Zn,0.0
mp-1026456,Mg14BiW,0.0
mp-764062,LiCo2OF3,2.0411
mp-765703,NaMn3O4,0.0
mvc-7878,CaBiMoO5,1.6622000000000003
mp-1075505,Mg5Si6,0.0
mp-542233,Rb3As11,1.4693
mp-865150,MgCdAu2,0.0
mp-736581,Zn4P3H10C2NO13,3.7043
mp-1026437,Mg14CdSb,0.0
mp-1033815,HfMg14NbO16,0.0
mp-541213,Cs(MoO3)3,0.9884
mp-31273,La2CuS4,1.6292
mp-25151,V2P4PbO14,2.0731
mp-1022590,HfMg6Zn,0.0
mvc-621,YW3O8,2.2466
mp-762215,Li2TiCo3O8,0.1451
mp-15073,BaSmC2O6F,4.2939
mp-1033061,BaMg6AlO8,0.0
mp-38170,Cd(InSe2)2,0.0
mp-1095906,SrLaZn2,0.0971000000000002
mp-779164,Li4Fe2Ni3Te3O16,1.0670000000000002
mp-1079782,Cu(N3Cl)2,0.0
mp-755032,Cu3(TeO5)2,0.11499999999999976
mp-974469,ReTe,0.0
mp-865508,U2Ni12As7,0.0
mp-554009,Er4Si3O11F2,5.0561
mp-778307,Li2MnFe(PO4)2,3.6406
mp-619100,LiEuTiO4,0.0
mp-24534,CaH4SeO6,3.8552
mp-1021361,Mg6TiCd,0.0
mp-989194,SnBrCl,1.1451
mp-767157,Ti16CuS32,0.0
mp-1039227,Ca2Mg,0.0
mp-973278,KSr3,0.0
mp-1880,SbF3,4.4381
mp-607358,FeF3,3.1627
mp-778532,Li2FeF4,2.565
mp-1033338,BaHfMg6O8,0.0
mp-708034,H13Se2N3O8,1.0547
mp-771107,Li3Ni4SnO8,0.0
mp-1026702,Mg14SiMo,0.0
mp-540946,LiReO4,4.0225