mpid,formula,gap pbe
mvc-16593,Y(FeS2)2,0.0
mp-849401,Li4Co7(OF7)2,2.0318
mp-20181,Ce2C3,0.0
mp-684907,U12O19,0.0
mp-778516,Fe3O5F,0.0
mp-18723,BaV2(NiO4)2,2.6682
mvc-4858,Mg(CuO2)2,0.0
mp-962061,YMgTl,0.0
mp-510400,GdIr3,0.009000000000000341
mp-705013,CrBi8O15,1.9015000000000004
mp-571271,TmPt2,0.0
mvc-8941,MgSb3O7,0.0
mp-984724,Ba2TlZn,0.0
mp-974253,HoErZn2,0.0
mp-772009,Li3Nb4NiO12,0.6280000000000001
mp-765793,Li2Mn(PO4)2,0.7448999999999999
mp-567864,TlBi(PSe3)2,1.3847
mvc-15991,Mo3O8,1.2604000000000002
mp-777413,CeScO3,0.0
mp-561138,RbGd(PO3)4,3.4694000000000003
mp-1084753,K3Sb,0.3936000000000001
mp-173,MnAl6,0.0
mp-780399,Na6B4Sb2PO16,0.0
mp-754604,BaBePO4F,6.0427
mp-558458,Mg3Si(O2F)2,5.0611
mp-765378,LiMnVP2(HO5)2,0.9682
mp-26223,Li4Cu(PO4)2,0.039800000000000064
mp-1078631,SrBiS2F,0.8856000000000002
mp-1038613,BaMg30BiO32,0.04499999999999993
mp-680374,KAlSiO4,4.6996
mp-24383,Mg(H2N)2,3.0137
mp-24945,LaFeAsO,0.0176999999999996
mp-30558,HoCo3,0.0
mp-504600,NaH4ClO2,4.923
mp-1095141,Sr2MnMoO6,1.0968000000000004
mp-770518,Li4Ti3Mn3(CoO8)2,0.7553000000000001
mp-7664,Na6ZnO4,1.5336
mp-677017,KRb5Zn4Sn5S17,1.5766999999999998
mp-9813,WS2,1.8408
mp-999263,RhN,0.0
mp-2430,ZrGe2,0.0
mp-2740,ErCo5,0.002100000000000436
mp-975972,PrLuMg2,0.0
mp-766453,Li2Cu4S3,0.004600000000000826
mp-1030596,Te2MoWSeS,0.0
mp-570528,Li2GaIr,0.0
mp-1078704,ErNiBC,0.0
mp-12080,Dy(CrGe)2,0.0
mp-699368,Na3(W2O3)2,0.0
mp-560559,TeC4(ClF3)2,3.0237
mp-631572,GaReAs,0.0
mp-764136,Mn3(OF2)2,0.03600000000000003
mp-763452,LiP3W2O13,3.3183
mp-864598,LiMg2Ag,0.0
mp-567858,Dy12C6I17,0.0
mp-720815,K2TeH6(O3F)2,2.9622
mp-978256,Mg2TlPb,0.0
mp-31413,TbSnAu,0.0
mp-771282,Li24Ti7Cr5O36,1.2134
mp-1027034,Te2MoWS2,0.0
mp-1072989,Mg2Si3,0.0
mp-1094197,Mg2Sn,0.0
mp-560139,S2XeNO4F3,2.7589
mp-31629,Ta2CrO6,1.1376999999999995
mp-778355,BaYBr5,3.8004
mp-16863,Rb3PS4,2.7368
mp-761396,LiCrPO4,2.2924999999999995
mvc-9086,PrMgTi2O6,0.0
mp-779854,Li8Mn7Fe(BO3)8,2.8974
mp-631403,CdPOs2,0.0
mp-554702,NaZr2NiF11,5.6362000000000005
mp-25715,NiH8(ClO2)2,4.1894
mp-705037,Na4VP2O9,1.7472
mp-1071992,YFe2,0.0
mvc-13301,Sr2YSn2O7,0.0
mp-866051,HfFe2Sn,0.02099999999999902
mp-560324,Rb3Hg2S3ClO12,2.3627
mp-1025460,MgZrF6,6.5421
mp-532348,Cu29(Ag6As7)2,0.025599999999999845
mp-626435,Al(HO)3,4.9639
mp-569849,Li15Si4,0.0
mp-662566,Ca4Al6SO16,4.4663
mp-1097929,HfMg,0.024499999999999744
mp-771850,Li3V(TeO3)4,1.9196
mp-546621,ErBi2BrO4,1.3505000000000005
mp-676261,Y3NbO7,2.1545
mp-1094630,MgGa2,0.0
mp-995183,CO,0.0
mp-2385,TaCr2,0.0
mp-1034266,Mg14TiSnO16,0.0
mp-756163,Li2Cu4S3,0.12699999999999978
mp-758176,LiCuPO4,0.0
mp-569006,Sr(AsRh)2,0.0
mp-10678,AuSe,0.0
mp-772342,Y2W2O9,1.9715
mp-10835,RbSm2CuS4,0.9672
mp-680114,CdI2,2.3553
mp-7343,Y3Pt,0.0
mp-35618,Lu10Ti6O27,2.4954
mp-568196,Er3CoSi3,0.0
mp-569240,Fe3Se4,0.0
mp-3785,TlGaTe2,0.5316999999999998
mp-582212,USb2Au,0.0
mp-37310,Dy10Ti6O27,2.5756
mp-672298,Eu(MnGe)2,0.0
mp-863686,Pm2HgGe,0.0
mp-761996,Li2CoNi(PO4)2,2.5657
mp-627380,Mn(ReO4)2,3.1355
mp-685698,Re8Pb8O27,0.0
mp-1093754,YScRu2,0.0
mp-1094383,MgTi,0.0
mp-3515,Y(CoB)2,0.0
mp-13532,La2ZnNi2,0.0
mp-1096460,Sc2TcRu,0.0
mp-1057015,PbS,0.5555000000000003
mp-709428,YH8C2S2NO9,1.4786
mp-555246,Ba3LuRu2O9,0.0
mp-774143,MnSbO4,0.0
mp-795639,Rb2Be4Pt3,0.0
mvc-14221,V3Zn2O8,1.2912
mp-4699,NaTaO3,2.3846
mp-556519,CeB2ClO4,0.2019000000000002
mp-32535,WI3O,0.9198
mp-558276,K2Er(NO3)5,3.4458
mvc-6967,MgCrP2O7,3.0375
mp-1016343,BaSrMg6,0.0
mp-774753,Li5GaO4,3.6955
mp-7834,TaSe2,0.0
mp-1018656,Ca2H3Br,1.5367999999999995
mp-675332,InI4,0.0
mp-561683,Sr2LuIrO6,0.0
mp-767153,LiCo2(PO4)2,0.33609999999999995
mp-849075,NiS2,0.0
mp-757852,Bi16O25,0.0
mp-565929,K2EuTa5O15,0.0
mp-24662,Rb4Mg3H10,3.4271
mp-1034139,Mg14TiNbO16,0.0
mp-973890,HoHfRu2,0.0
mvc-5158,Mg(AgO2)2,0.0
mp-764404,K2NiP4(HO2)8,4.9861
mp-975897,Hf2RuRh,0.0
mp-850243,Li5Mn6(BO3)6,0.2820999999999998
mp-1068389,SnCCl3,0.0
mp-1025716,MoW2(SeS2)2,0.5537000000000001
mp-557035,K3SO4F,5.2345
mp-1027350,TeMoWSeS2,0.0
mvc-7090,Zn(MoO2)2,0.7949000000000002
mp-29806,Cs2PdI6,0.649
mp-1025099,TbGaI,0.0
mp-675991,Cd3(BiO2)10,0.0
mp-865250,TmTc2W,0.0
mp-773403,Na3Li3Mn2P2(CO7)2,3.5248
mp-776675,Ti3Co2Te(PO4)6,0.4925999999999999
mp-1080359,CeSe2,0.55
mp-570449,Ba14Na7CaN6,0.0
mp-3208,ZrGeTe,0.0
mp-33932,NbHO3,2.6537
mp-23295,RbCl,4.9389
mvc-4979,Mg2BiWO6,2.0712
mp-780856,Co6O7F5,0.0
mp-865953,AcYbZn2,0.0
mp-7258,K4SnO4,2.3374
mp-705134,In2(MoO4)3,3.7072
mp-865253,LuMgPd2,0.0
mp-1100584,Li9Mn2Co5O16,0.0
mp-865281,Tm2AgPt,0.0
mp-1076754,K4Na4Mo7WO20,0.4502999999999999
mp-28904,Na2Te4O9,3.1228
mp-972650,SmDyRh2,0.0
mp-559257,AgTeO3,1.4211
mp-1028257,SrMg14Al,0.0
mp-863736,Ho2OsAu,0.0
mp-684950,KNaZr2Be(PO4)4,2.6611
mvc-1956,Cu9O13,0.0
mp-978098,HoMnB4,0.0
mp-534773,Na2Al17Si11B7(H3O31)2,4.069699999999999
mp-1023941,Te4MoW,0.9478
mp-1095730,Tl2CdIn,0.0
mp-704186,LiFe4(PO4)3,3.6404
mp-1025289,Ce2Fe2Si2C,0.0
mp-1080694,Os,0.0
mp-1032124,HfMg6FeO8,0.0
mp-560028,UTe6(OF5)6,2.2523
mp-570390,Ba5Al2Ge7,0.0
mp-1078776,InBiS3,1.3794000000000004
mp-30626,DyZn3,0.03859999999999975
mp-18912,Na5NiSO2,1.7421
mp-1094357,MgTi,0.0
mp-5639,Mg2SiO4,4.8756
mp-684503,LiSn(PO3)3,4.2063000000000015
mp-703531,CuSiH8(O2F3)2,0.9868
mp-624,B6As,2.6454000000000004
mp-754757,SbRhO4,0.0
mvc-632,Co(WO4)2,0.1016999999999999
mp-767711,Li2Mn2Si4O11,3.2813000000000003
mp-1063902,MnBi,0.0
mp-20956,Gd(SiNi)2,0.03000000000000025
mp-715482,MoO2,1.2695
mp-1097482,SrLaCd2,0.1197999999999999
mp-1080098,Nd3Al,0.0
mp-27932,Li9Ge4,0.0
mp-1582,As2O3,4.0252
mp-1027053,Te4Mo3W(SeS)2,0.13419999999999987
mp-11517,NbRu3,0.0
mp-578628,Sr2YCu3(PbO4)2,0.0
mp-1098986,Mg14AlVO16,0.0
mp-39091,Co2CuO4,0.0184000000000002
mp-30577,CsK2,0.012299999999999978
mp-19513,SrV2(AsO5)2,1.743
mp-4647,K3(Cu4Se3)2,0.5441000000000003
mp-1074350,Mg4Si3,0.0
mp-997182,C,9.9999999999989e-05
mp-764015,Li4Ti3VO8,0.0
mp-1034241,NaHfMg14O15,0.0
mp-756770,UNb6O16,0.0
mp-772788,Ba2Cu2O5,0.7701
mp-774185,Mn6OF11,0.3546
mp-1095795,BeZnIr2,0.0
mp-764578,MnOF,0.004799999999999915
mp-1094395,Mg3Ti,0.0
mp-16511,Mn3Al10,0.0
mp-763971,Li3VFe3O8,1.5321999999999996
mp-37036,Bi2O3,1.6863
mp-775082,Li3Fe4SbO8,1.513
mp-703380,H6CSBrN3,3.4555
mp-6109,CaTiSiO5,3.0020999999999995
mp-850434,Li5Mn6(BO3)6,0.256
mp-555076,KNaSnF6,5.1714
mp-977417,NdB2HF10,7.788500000000001
mp-548658,RbPO3,4.5235
mp-9367,RbErS2,2.3689
mp-998554,KAgCl3,0.0
mp-10388,Nb5(PPd)4,0.0
mp-566335,FeTeO3F,2.2474000000000003
mp-721415,CuH12N2(Cl2O)2,0.5328999999999999
mp-18839,Pr2NiO4,0.5583
mp-1097631,Ba2MgTl,0.13749999999999996
mp-35591,LiErS2,1.9887
mp-1033120,Mg6AlCrO8,0.0
mp-861109,SmY3O6,3.9935
mp-769566,Li5Fe2Co3O10,1.665
mp-557998,Dy3CuSiS7,1.7895000000000003
mp-862922,PmInNi2,0.0
mp-864883,MgSnPd2,0.0
mp-760311,Na7SbO6,1.7517
mp-1028597,Te2MoWSe2,0.02610000000000001
mp-761595,Li3Si6NiO15,1.6989000000000003
mp-1099140,Mg14MnBO16,0.0
mp-570303,KTmI3,0.0
mp-569096,Ce2Ni22C3,0.0
mp-558951,K2B6H2O11,5.364199999999999
mp-865271,LuMgRh2,0.0
mp-865978,YbPrHg2,0.0
mp-32331,NiP2O7,0.002400000000000069
mp-27208,RbMgCl3,4.7503
mp-570442,Th6Mg23,0.0
mp-864684,Hf2MoIr,0.0
mp-1029072,Te2MoWS2,0.0
mp-690498,ZnFe5O8,1.1689000000000005
mp-6759,BaGa2(SiO4)2,4.0084
mp-9210,La(PdO2)2,0.0
mp-851257,V2OF5,1.5619
mp-971744,ZnCo3,0.0
mp-12982,ScAs,0.0
mp-7352,MgCuP,0.01849999999999952
mp-1079307,Dy3(CoGe2)2,0.0
mp-16644,PrMgPt,0.029499999999999638
mp-771078,Li3FeBO5,0.4643000000000001
mp-565400,ReAsC5SNO5F7,2.2391
mp-1099727,K4Na4Mo5(WO8)3,0.5893999999999999
mp-983445,Na3Pt,0.0
mp-18769,CeVO3,0.08249999999999957
mp-25102,NiPb2(NO2)6,0.0
mp-706448,Mn14Al56Ge3,0.0
mp-851042,FeOF,1.1296
mp-861728,PuSbPd2,0.0
mp-769545,Li10FeNi9O20,0.0
mp-20857,CoB,0.0
mp-570989,UCl5,0.3351
mp-30645,HoGa4Ni,0.0
mp-4689,Al7FeCu2,0.0
mp-14249,Th(PS3)2,2.4371
mp-1599,BN,1.5764
mp-1025509,ZrZnF6,6.129
mp-2345,Dy2O3,4.1029
mp-27374,NaAsSe2,1.2044
mp-29882,CsPdCl3,1.4655
mp-771932,Li2V2SiGeO10,2.1096
mp-764922,VF5,3.1601
mp-759455,LiSbP2O7,3.3884
mp-30594,Cu4Pd,0.0
mp-1033731,Mg14BCO16,1.0647000000000002
mp-565260,Nd2W2O9,3.5017000000000005
mp-778813,Li7Mn8(BO3)8,0.2933000000000001
mp-489,Ge4Ir,0.0
mp-542432,Sr2MnGaO5,0.10449999999999984
mp-778063,Ti3Mn2Ni(PO4)6,2.2602
mvc-6495,Mg(SbO2)2,1.0713999999999997
mp-1034906,NaCeMg14O16,0.0
mp-561131,NaGd(PO3)4,3.3308
mp-745144,VH24C8S2N2O9,3.1064
mp-542441,V3O5,0.0015999999999998238
mp-1095491,YCoSn,0.0
mp-4630,Li2RuO3,0.0
mp-25030,TbMnO3,0.5087000000000006
mp-1095043,Sc3OsC4,0.0
mp-771554,FeCo3O8,0.0
mp-616604,CsMnF4,0.11069999999999997
mp-548170,U3O8,0.0
mp-19320,K2FeO4,1.5563
mp-1001917,HoAs,0.0
mp-1079646,GaAgS2,0.9598
mp-32478,LiV2(PO4)3,1.1028
mp-646297,Hg4Pb2N6O19,1.8181
mp-31197,Er(FeSn)6,0.005799999999998917
mp-531820,Li4Ti7O16,2.8296
mp-1017120,HfMg6C,0.0
mp-771195,Na5Ni2As(CO4)4,0.0
mp-554441,NaTi2Ga5O12,2.7362
mp-771617,Li7Fe5O12,0.018299999999999983
mp-758997,LiCuCO3,1.4634
mp-776165,AgAuO3,0.2423000000000001
mp-3635,LiBO2,5.226
mp-1028456,TeWSe,0.2897999999999996
mp-568854,CsReBrCl3,1.1778
mp-1095442,HfVP,0.0
mp-21780,SmSi3Rh5,0.0
mp-757535,Li35(RuO4)12,0.0
mp-775777,LiFeF4,3.1241
mp-3299,Sr(FeP)2,0.0
mp-1056957,C,0.0
mp-643923,Zr2CoH5,0.0
mp-573024,Na2Cu5(Si2O7)2,0.14040000000000008
mvc-1309,BaYNi4O7,0.0
mp-540008,NiPO4,0.0181
mvc-1361,BaMo4O7,0.01609999999999978
mp-562007,Ba2CeC3O9F,0.029200000000000337
mp-772380,LiV(SO4)2,1.8647
mp-542964,Eu(TmSe2)2,0.3281999999999998
mp-24279,AlH36C12S6(IO2)3,3.3691
mp-1021796,Mg6NiB,0.0
mvc-8332,CaCu3(NiO3)4,0.0
mp-1078396,InSe2N,0.0
mp-625563,Mo(HO2)2,2.5375
mp-1022076,Mg6CdCu,0.0
mp-985626,Na3Mn2SbO6,1.1822
mp-504167,LiMn6P7O24,3.6402
mp-21838,Ce(SeO4)2,1.2847
mp-32472,LiV(PO4)2,0.8411999999999997
mp-571578,CdI2,2.3557
mp-762161,Fe3Co2Cu(PO4)6,0.18619999999999992
mp-756296,ErTiO3,0.0
mp-1079518,Er(SiPt)2,0.0
mp-1093993,ZnO,0.7379999999999999
mvc-6611,SnO2,0.6344000000000003
mp-560421,Sr2NiTeO6,2.3726
mp-763768,K8Li9Mn4O16,0.4358
mp-2444,GaRh,0.0
mp-767448,Li4ScFe3(SiO3)8,2.7686
mp-25946,Sb2P5O16,0.13929999999999998
mp-971704,ZnBO3,0.0
mp-382,Th3As4,0.2716000000000003
mp-753890,Ni2H,0.0
mp-1026843,LiMg14Si,0.0
mp-1026512,Mg14NbCd,0.0
mp-24761,RbGaBP2HO9,4.662599999999999
mp-698613,La14Mn16O45,0.0
mp-29033,P3BrCl14,1.6732
mp-1961,TiAg,0.008600000000000385
mp-865870,LiZr2Os,0.0
mvc-7066,Mg(MoO2)2,1.8083
mp-20478,LuTiSi,0.0
mp-1008491,BeSiP2,0.0
mp-22551,UP2(PbO5)2,1.8283
mp-567186,La3Co29(Si2B5)2,0.0
mp-1016218,BaMg3,0.0
mp-29576,Cd7P10,1.2371000000000003
mp-548598,U(BiO3)2,1.5930000000000002
mp-867263,ScCdHg2,0.0
mp-1079583,Rb2NaAlF6,6.8234
mp-780136,Li3Mn4(BO3)4,0.15490000000000004
mp-29992,AsPbF7,4.0652
mp-769108,NiP4,0.0
mp-850406,Mn8O13F3,0.0036000000000000476
mp-555123,KMnF3,2.6633
mp-558924,Na5Ga3F14,5.2178
mp-1023303,NaMg6Al,0.0
mp-862790,FeSiTc2,0.0
mp-470,GeO2,1.2307
mp-775345,LiTi2VO6,1.7907000000000002
mp-13676,TlPO4,0.7150999999999996
mp-763223,Li4Mn3Fe2Ni3O16,0.0
mp-1814,BaAg5,0.05390000000000007
mp-1098889,LiMg30CoO32,0.0
mp-762421,Li15Mn2O12,0.0
mp-771121,La2HfO5,4.0802000000000005
mp-505743,GaBPbO4,3.3713999999999995
mp-698375,CuH12C5S4N,1.6568999999999998
mp-771394,Li4Ti3Mn3Cr2O16,0.07730000000000015
mp-5491,MnAlAu2,0.0
mp-39888,NdTi3Fe(CuO4)3,0.09689999999999976
mp-19654,SnWO4,0.915
mp-18954,ScMnO3,0.0
mp-768199,Li3SbS3,2.2473
mp-13503,ScZn2,0.0
mp-1091370,LuInAu,0.0
mp-18614,In3Rh,0.0
mp-11444,YGa2Ni,0.0
mp-764908,Li3VO3F,1.3617
mp-999291,PrPd,0.0
mp-557412,Cs(CoS)2,0.0
mp-979259,V2ReMo,0.0
mp-636273,Nd3GaN,0.0
mp-555071,BrN(OF2)2,2.341
mp-556327,K2HgC2S2(BrN)2,2.3991
mp-972822,SiBO3,0.0
mp-27974,PuBr3,0.0
mp-555164,Ca5P3ClO12,5.4052
mp-979423,YGa3,0.0
mp-541912,ZrBrN,1.4423
mp-722979,K2Zn(H2N)4,1.98
mp-770174,MnP2O7,1.5352
mp-767729,Li12V3CrP4(CO7)4,1.9742
mp-1097273,Mg2ZnIr,0.08139999999999993
mp-362,Ni3S2,0.0
mp-675,ZrW2,0.0
mp-7725,Na2UO4,2.0224
mp-16713,Pr2B5,0.0
mp-30818,Li2AlPt,0.02199999999999936
mp-19285,Ba(FeO2)2,1.7498000000000002
mp-555465,La10Si8O3,0.0
mp-1519,CaTe,1.5535
mp-1038840,Ca2Mg,0.0
mp-765265,Ti2Mn(PO4)3,0.15549999999999994
mp-31703,CrOF3,2.1346000000000003
mp-1098253,NaHfMg6,0.0
mp-18510,Sr2SiO4,4.3787
mp-778756,LiVBO3,2.2229000000000005
mp-974270,Na3Al,0.0
mp-8147,K2As2Pd,0.6457999999999999
mp-778492,Na6Ti2O7,2.6342
mp-19472,Rb2MnV2O7,2.5885
mp-24956,ErFeO3,1.7067
mp-29484,K4HgAs2,0.6976000000000001
mp-1037140,Mg30CuCO32,2.244999999999999
mp-1026471,Mg14SbW,0.0
mp-697797,V(PO3)4,1.147
mp-769703,LiCrBO3,1.4489999999999998
mp-971941,Zn3Ni,0.0
mp-566379,KCrIO6,2.6423
mp-767592,Li3V(SiO3)3,2.2683000000000004
mp-2197,BaHg,0.0
mp-769732,Li3Cr(BO3)2,2.0741
mp-1018040,MgSe,2.5855
mp-776773,LiFeF3,3.1084
mp-29475,BH2N,5.2948
mp-15297,Hf6NiSb2,0.0
mp-853136,Li2Mn5(Si2O5)6,2.9910000000000005
mp-763418,Li2Fe3O10,0.0
mp-981550,RbTmO3,0.0
mp-1026483,NaMg14Ti,0.0
mp-707398,Mg2PHO5,2.3981000000000003
mp-32800,Ac2S3,2.2729
mp-24982,Fe2PO5,1.7472999999999996
mp-619767,Cs3Fe2F9,4.0212
mp-738680,ZrH27C8N2Cl5O2,3.926
mp-863289,NaAl6Fe3Si6B3H3O30F,0.4913999999999996
mp-1095497,YIr3,0.0
mp-973974,K3Mo,0.0
mp-1079627,PrAlH6,2.0363
mp-29684,La5Sb3Br,0.0
mp-542881,Ce3(CuSn)4,0.00019999999999953388
mvc-5054,Ca2CrWO6,1.8295000000000003
mp-765943,Li3V2(O2F)2,0.8773
mp-754177,CaGd2O4,2.4804
mp-18335,Ba2Ge2Se5,1.2918
mp-557900,SbCSCl2F9,3.8
mp-1094554,Mg2Sb,0.0
mp-647247,Er2Ga10Os3,0.0
mp-27166,Hf3Ni7,0.008399999999999963
mp-755358,LuAlO3,3.6479
mp-571428,MgNi3B2,0.0
mp-31787,Li3Fe(PO4)2,2.1069
mvc-13180,CrSe2,0.0
mp-1077377,YbCuPb,0.0
mp-685291,AlPO4,1.4649
mvc-9357,W3O7,0.04269999999999996
mp-765244,LiV2O2F3,1.7317000000000002
mp-566452,K8Hf(MoO4)6,4.0496
mp-540736,BaCd(PO3)4,4.6108
mp-1027383,Te4Mo3WS4,0.0
mp-775166,Li2TiMn3O8,0.7382
mvc-14931,MnO2,0.0371999999999999
mp-776763,Ti3(WO6)2,2.5978
mp-11990,Pr2CdNi2,0.0
mvc-9500,Zn(AgO2)2,0.0
mp-673071,Li2SnP2O7,3.7003
mp-973271,K3Y,0.0
mp-762993,Fe2O3F,0.0
mp-1095424,Pr4Mn2As5,0.0
mp-766678,Li3Cr(Si2O5)3,3.5446
mp-776008,TiFe2Ni3(PO4)6,0.007099999999999884
mp-648745,NaTiFeO4,1.9788
mp-9317,KZrCuS3,0.5924999999999998
mp-1013712,Ba3SbP,0.0
mp-1076659,KNaMoWO6,0.21160000000000026
mp-763838,Na2LiCaVP2O9,1.7406
mp-674159,Rb2CrCl4,0.5269999999999997
mvc-9620,BiPO4,3.0004
mp-699315,Ni(PO3)3,0.29499999999999993
mp-863264,TbI3,2.0929
mp-19405,Ni(AgO)2,0.0
mp-556662,SiO2,5.5589
mp-765186,Li2VF5,2.1785
mp-771640,BaSrI4,3.4688
mp-555119,SrTaF7,5.4906
mp-762003,Li2Fe2C2O7,2.9417
mp-558191,Na2ZrSi2O7,4.5653
mp-699137,Li4(CoO2)7,0.7873000000000001
mvc-16207,Ca2CoO3,0.9185
mp-675989,Tl9BiSe6,0.7462999999999997
mp-19463,Na5Tb(WO4)4,4.8039999999999985
mp-782706,V6O7F5,0.4036
mp-1515,ZrSi2,0.0
mp-767572,Li2MnF5,1.7835
mp-573957,CsCu4Se3,0.0
mp-559470,AgPbBrO,0.5365999999999997
mp-568534,P4C2Se3N2,2.2423
mp-561891,AgCNO,0.0
mp-22282,LaIn2,0.0235000000000003
mp-6027,Ba2Tl2CuO6,0.0
mp-9369,RbYbS2,0.0
mp-849519,Mn6O5F7,0.0
mp-777191,LiFe2OF5,1.9051
mp-1100651,Li9Mn2Co5O16,0.0
mp-865875,Li3Ag,0.0
mp-773561,Fe4OF7,0.8366
mp-12467,Ca5Sb3,0.0
mp-567842,TaBe12,0.0
mp-32645,Sm2S3,1.8076
mp-867262,ScTc3,0.0
mp-780209,Fe6O11F,0.0
mp-582067,Hf3As,0.0
mp-3375,Nd4Ge3Rh4,0.0
mp-975106,Rb2Bi2O5,0.0
mp-778547,Li2MnF4,3.9058
mp-781753,Li3CuP2O7,1.2101999999999995
mp-1097372,BeFeRu2,0.0
mp-11456,HfPt3,0.0
mp-1094732,Ce2Mg,0.0
mp-20832,Zn(InTe2)2,0.8291
mp-9722,Na2LiGaAs2,0.6841999999999997
mp-1017474,LaMg6Mo,0.0
mp-767134,Sn2P2O7,2.8862000000000005
mp-29776,Ce4Ge9Rh13,0.0018000000000002454
mp-2080,SrBe13,0.0
mp-2624,AlSb,1.2272999999999996
mp-1032962,CaMg6SiO8,0.0
mp-540783,OsO4,3.3465
mp-625501,NaH9O5,4.3239
mp-623448,Nd3InN,0.0
mp-18655,Ba(SiRh)2,0.0
mp-17893,Mn4Nb2Si5,0.0
mp-770737,Ga2WO6,1.7670999999999997
mp-764897,Li8NiO5F,1.1136
mp-775989,CrFe3Sb2(PO4)6,2.2861
mp-542050,LiV6O13,0.6324999999999998
mvc-4851,Ca(WO2)2,1.5984000000000005
mp-865431,YbZnAu2,0.0
mp-570571,ThMg2,0.0
mp-1077554,NaFe2O3,0.0
mp-850479,Mn3SnO8,1.3142999999999998
mp-973919,NpOsO3,0.0
mp-560468,Pr3Si2S8Br,2.7496
mp-769680,HfCrO3,1.5871000000000004
mp-13949,Cd(GaTe2)2,1.0357000000000005
mp-762214,Li2Co3SnO8,0.0
mp-672953,Np(FeGe)2,0.0
mp-643264,BaMg2FeH8,1.4470999999999998
mp-780297,Li3Mn2Fe(BO3)3,2.6528
mp-757947,Li2Sn(PO3)5,0.11250000000000028
mp-622785,FeSNO,1.5851000000000002
mp-613838,Eu(MgGe)3,0.0
mp-1100174,CsMg6Bi,0.0
mp-643573,Mg3MnH7,1.6630999999999996
mp-767918,Li4FeNi5(PO4)6,0.0
mp-989404,Ca6In2NF,0.0
mp-1077197,CeScSb,0.0
mp-774271,Sr21Fe14O47,0.04430000000000023
mp-540605,Y6Fe16O,0.022299999999999542
mp-779092,Li24Ti11CrO36,1.4654999999999998
mvc-666,AlSb(WO4)2,1.6134000000000004
mp-1097662,NbInTc2,0.0
mp-1093675,LiSiAu2,0.11979999999999967
mp-1034819,Mg14SiBO16,0.0
mp-769876,TbNiO3,0.0
mp-2163,HoRh,0.0
mp-686077,Er18Ti14O55,2.3688
mp-17701,Sr2NbN3,2.293
mp-1070214,Ba(MgAs)2,1.0689000000000002
mp-775086,Li3SiNiO5,0.17379999999999995
mp-16861,Na5GeAs3,0.4837
mp-625199,ScHO2,4.4927
mp-973391,LiSiB6,1.6762000000000006
mvc-269,Sr2TiCu2O7,0.0
mp-561090,SiO2,5.5448
mp-31541,LiCoPO4,2.9452
mp-763012,Li2MnF4,3.7439999999999998
mp-510521,Y5Ga3,0.0
mp-9037,CsPrS2,2.2298
mp-1017446,HfCdO3,0.0
mp-1093537,TlIn2Pb,0.0
mp-865318,Lu2MgRu,0.0
mp-866829,Ca2SnS4,1.0664000000000002
mp-1019560,Ca2B2O5,4.7085
mp-762589,Li4Mn5(NiO6)2,0.6299999999999999
mp-1028689,Te4MoW3(SeS)2,0.0
mp-1078847,CoAgO2,0.0
mp-1028132,CaMg14W,0.0
mp-740758,H2Os4Pt(CO)15,1.8919
mp-19601,Ni2Te3O8,3.1568000000000005
mp-5683,U(MnSi)2,0.0
mp-753943,Li2FeS2,0.0
mp-773930,V3(WO6)2,0.1794
mp-770669,Li24Mn11CrO36,1.2616999999999998
mp-722382,PH11C(NO2)2,0.24760000000000004
mp-864957,MnSbRu2,0.0
mp-559745,SiAg8(SO2)2,0.0
mp-775279,Li4Mn3Cu3(SbO8)2,0.0
mp-1087512,TmTe3,0.0
mp-8804,Li6MoN4,2.7709
mp-770557,Mn2P2O7F2,0.8102
mvc-9158,Mg(WO2)4,0.0
mp-972117,SrTeO3,3.606100000000001
mp-1021790,HfMg6Ni,0.0
mp-555065,LiEr(PO3)4,5.9182
mp-567070,LiMoAsO6,2.4743
mp-866714,La3NiBr3,0.0
mp-558293,K2Na(B3O5)3,5.3009
mp-29618,NiP3W2,0.0
mp-984350,Dy3Sb4Au3,0.5677000000000003
mp-1072501,DySnAu,0.0
mp-565569,NaAl(MoO4)2,3.6881
mp-565408,BaLiCoF6,2.2843
mp-553881,SiO2,3.5957
mp-1030388,TeMoWSeS2,0.0
mp-1003312,KMn4O8,0.19310000000000005
mp-6691,Ba2Dy(CuO2)4,0.0
mp-19101,BaEr2NiO5,2.264
mp-720835,Mg5H10(C2O9)2,4.4617
mp-761673,Li4Mn3Ni(PO4)4,2.7518
mp-756168,Li2Nb4O11,2.5366
mp-1098382,KMg30WO32,2.5142999999999995
mp-28595,KNaSe,2.0161
mvc-15814,TiZnF5,0.22470000000000034
mp-20420,KGdTe2,0.7134999999999998
mp-23196,U3Bi4,0.02779999999999916
mvc-3263,CaFeSiO5,0.0
mp-15656,Si4Ir3,0.0
mp-754978,CdCu2O3,0.0
mp-866279,CaCdPd2,0.0
mp-983228,SrEu2Al2O7,0.0
mp-778890,Li3MnV(PO4)3,0.29890000000000017
mp-18897,NaVTeO5,3.0152
mp-772740,Ba4Lu6O13,2.5346
mp-600085,SiO2,5.6423000000000005
mp-771285,Li24Ti7Cr5O36,1.2939000000000005
mp-1026666,NaMg14W,0.0
mp-1018016,Ti2AlNi,0.0
mp-613523,Fe3C,0.0
mp-740731,Al2H12(SeO5)3,4.6404
mp-24263,KP(HO2)2,5.2175
mp-767057,SrLiLa3MnO8,1.6632999999999996
mp-22328,K4PbO4,1.6772
mp-1077022,YCo5,0.0
mp-39066,CsU2F9,0.000199999999999978
mp-779306,Li3Fe(BO3)2,2.1966
mp-1095379,Na3PaF8,4.2399
mp-865416,LuThTc2,0.0
mp-1027274,MoWSeS3,0.5998999999999999
mp-566902,Te3W2Se4(Cl4O)2,1.0027
mp-554929,CsNdNb2O7,2.3868
mp-857361,LiMnPO4,3.2911
mp-22210,Co2As,0.003599999999999603
mp-1080196,Pb3N2,0.036100000000000236
mp-704306,K2U2MoO10,1.6901
mp-9584,Nd(BIr)4,0.0
mp-772986,Na3SiSnBO7,2.8195
mp-1080221,KMn16O32,0.0
mp-11771,CoCu2SnSe4,0.0
mp-634113,Cd2H2SO6,2.616
mp-770358,Li3V3(BO5)2,1.0750000000000002
mp-961669,NbGaPt,0.0
mvc-3081,ZnMoF5,3.222
mp-865279,Tm2AgOs,0.0
mp-752565,LiAg2F4,0.00990000000000002
mp-540421,Li2MnP2O7,4.3861
mp-1311,Cr5S6,0.0
mp-699399,K2BaNi(NO2)6,0.5499
mp-764109,Mn12O7F17,0.0
mp-1684,ZnAu,0.0
mp-1079743,SmMgPd,0.0
mp-19789,Mn(BW)2,0.0
mp-31918,BaMn2O8,1.8622
mp-1036927,Mg30CdCoO32,2.7959000000000005
mp-568363,C,1.2268
mp-1080078,LaCrGe3,0.0
mp-553975,K3Na2InO4,1.9057
mp-565565,K2VPO6,3.3851000000000004
mp-608366,CuN6,0.0
mp-11431,CaGa3Ni2,0.0
mvc-10067,MgTi4O9,2.5451
mp-696179,KNaH6PtC4N4O3,1.3944
mp-1020658,NaB(SO4)2,6.0208
mp-561226,BTe3(OF5)3,3.7899
mp-1039121,MgCd,0.0
mp-989639,Cs2KInF6,5.4629
mp-865470,Ac2CuSn,0.0
mp-21847,KMnAs,0.0
mp-553965,RbLaNb2O7,1.9664
mvc-7944,Mg2V3O8,1.3518
mp-639160,Gd2InGe2,0.0
mp-22405,Ni(C2N3)2,0.9374
mp-1093552,Mg2CdPt,0.07119999999999971
mp-862705,AlZnIr2,0.0
mp-579836,Mn3B7BrO13,4.1137
mp-1029741,Sr3IrN3,0.0