mpid,formula,gap pbe
mp-1096341,CdIn2Ga,0.0
mp-2695,Sb2Os,0.34339999999999904
mp-603128,SrEu2Fe2O7,0.010200000000000207
mp-694049,NaCa4TaTi4(SiO5)5,2.8068000000000004
mp-28448,DyCl3,3.8943
mp-972924,La(Mg4Al3)4,0.0
mp-779404,Li3Cr2(AsO4)3,2.6701999999999995
mp-12659,Mn2Nb,0.0
mp-20457,InP,0.0
mp-773188,Na3MnBSO7,2.4281
mp-571394,KC2N3,4.6487
mp-734299,Ce2H16S3O20,1.2367
mvc-13015,Cu3(SnO3)4,0.0
mp-1099951,Sm2Cr2O5,0.0
mp-552738,TmBi2IO4,1.4258999999999995
mp-774417,Sn3P6WO24,2.7096
mp-625154,H8PtO6,1.6174000000000002
mp-21122,NdSb2Pd,0.014800000000000146
mp-768887,Y(BO2)3,5.245
mp-504983,K2Nb4Fe2O13,1.4034
mp-1008471,CdTe,0.0
mp-2931,Li2TiO3,3.0339
mp-161,B,0.05799999999999982
mp-1066445,AlVCo2,0.0
mp-625207,P(HO)3,4.5579
mvc-6742,AlNi3F15,0.0
mp-773119,Na2MnAsCO7,0.6423
mp-582751,Y5GaCo5,0.0
mp-779100,Li24Mn7Cr5O36,1.0745
mp-24161,TiH2,0.0
mp-767521,Na2InPCO7,2.7683
mp-29401,Er5C2Br9,0.8853000000000002
mp-777096,LiFeF4,3.1962
mp-22988,CsGeCl3,2.6417
mp-12546,TiCu3,0.0
mvc-13176,CaCr(Si2O5)2,3.3907000000000003
mp-11100,YbIn5Rh,0.0
mp-585323,Cr4P7O24,0.0
mp-7017,NaNbN2,0.8320000000000003
mp-541638,K2(ReS2)3,1.4087000000000005
mp-573567,Ti(NCl)3,2.318
mp-985301,AcDy3,0.0
mp-1797,MnNi,0.02259999999999973
mp-2873,Ce(CrB3)2,0.0
mp-1006880,BiB,0.07979999999999965
mvc-11622,MgV2O4,0.0
mp-560827,MgH8C4(N3O2)2,4.7911
mp-1017475,LaMg6Bi,0.0
mp-29956,Hg3(SI)2,1.3129
mp-1096566,YSbAu2,0.0
mp-1010048,Br,0.0
mp-733590,TlCuHCO4,0.3826999999999998
mp-766561,LiNd14(Cu3O14)2,0.0
mp-27467,Ta6S,0.012299999999999756
mp-2557,Zr2Al,0.0
mp-3219,EuPO4,0.0
mp-1099778,BaSr7Ti8O24,1.7721
mp-1096172,Li2GaSn,0.13699999999999998
mp-1189,PrAl2,0.0
mp-29514,PHF4,7.5482
mp-977434,Nb3Ru,0.0
mp-1097211,TiV2Os,0.0
mvc-14138,Al2(FeO3)3,0.0
mp-777024,CeNiO3,0.9323000000000006
mp-1064854,TiCo2Si,0.0
mp-768674,Cs4Zr3Se14,1.5144
mp-13545,BaIrF6,0.0
mp-6926,Ca(PPd)2,0.0
mp-4701,CuSnF6,0.1778
mp-2552,TeO3,1.1502999999999997
mvc-6553,Mg3Fe3(AsO4)4,2.023
mp-777071,Li3Sb(PO4)2,4.2233
mp-1100332,Ca2SnS4,0.3980000000000001
mvc-11132,Zn(NiS2)2,0.0
mp-4104,HoPO4,5.9209
mp-998434,RbTlF3,0.0
mp-582444,Os(SeCl6)2,0.0736
mp-9743,SrAsPd,0.0
mvc-10598,BaMgCoF7,2.004
mp-979057,Sm2ZnAg,0.0
mp-34376,Tb2CdS4,1.8688
mp-1079732,Te(Br3N)2,0.0
mp-974938,Rb3Li,0.0
mp-646749,Nb2Ni4O9,0.0
mvc-5546,MgSnP2O7,3.7165
mp-772423,Ni(SO4)2,0.025100000000000008
mp-770614,TlCoO3,0.0
mp-862898,PmCdPd2,0.0
mp-12921,PrPIr,0.0
mp-530984,Al22PbO34,3.595
mp-28829,Li2ZnBr4,3.777
mvc-10605,BaMgWF7,3.9944
mp-6648,KLiB4O7,5.0827
mp-1030968,KHfMg6O7,0.0
mp-767862,MnCu4H14(SO9)2,0.3248
mp-5339,CsNaTe,1.9689
mp-24928,K2Cr2Cd(H2O5)2,2.7657
mp-3050,Y3Al5O12,4.5762
mp-1093877,Ca2CdGe,0.0040999999999997705
mp-770935,Na3CuPCO7,0.15949999999999998
mp-571093,BaAlSiH,0.7094
mp-543044,BaLiAlF6,7.2936
mp-1028663,WSeS,0.7620999999999998
mp-764435,Mn2O3F,0.0
mvc-4660,Zn(AgO2)2,0.0
mp-23837,NdH3(CO2)3,4.1896
mp-991114,AlNi3,0.0
mp-1028297,Mg14VCr,0.0
mp-776406,TePO5,0.0
mp-541636,KEr(PO3)4,5.4862
mp-973930,NpBeO3,0.0
mp-768573,Lu3AlO6,4.2139999999999995
mp-782636,Li2Cr2FeO6,0.0
mp-554715,Ti5O9,0.0
mvc-3777,MnAlO3,0.0
mp-23922,HN,4.1558
mp-561300,H14C3NF5,7.3363
mp-560941,SiO2,5.7701
mp-559981,Rb2CuH12(SO7)2,0.6003999999999999
mp-29521,RbBiO2,2.2042
mp-1097076,HfTiRu2,0.0697000000000001
mp-4202,BaAl2O4,4.0969
mp-745100,CoH19S3N5O11,0.7462
mp-18825,YCrO4,0.34519999999999995
mp-569003,Mg2Co12As7,0.0
mp-566104,K8UCr4(NO12)2,2.102
mp-642822,CaC2,2.4995
mp-6372,K2Be3Zn2F12,5.6758000000000015
mp-19487,Ba2Mn(PO4)2,4.1325
mp-684108,Li2Ti(PO3)5,0.2597999999999998
mp-977575,MgSbRu2,0.0
mp-568838,Hg4I7,0.0
mp-626263,Ba(H8O5)2,3.8353
mp-30446,Ca9Cd4Bi9,0.07719999999999994
mp-867861,SmYMg2,0.0
mp-27893,B5H9N,3.8998
mvc-6320,CuTe2O7,0.3027
mp-868354,Li3MnV3O8,0.4072999999999998
mp-1026511,BaMg14C,0.0
mp-1080340,CeSe2,0.0
mp-16904,Ba2CdTe3,1.402
mp-647840,Fe2C8SO10,2.4444
mp-1022105,Mg6TiCu,0.0
mp-762329,Li7Sb2P7O24,4.0418
mp-1028121,CaMg14Cr,0.0
mp-753898,LaTmO2,0.0
mp-771063,Li4Fe3Ni(PO4)4,3.0524
mp-696940,TiH12C2(NF)6,2.8143
mp-739,TiP,0.0
mp-849419,Fe10O9F11,0.41890000000000027
mp-769365,ZnSeO4,2.0654000000000003
mp-2060,LuTl3,0.0903999999999998
mp-12485,NaSm3SiS7,2.0169
mp-1031330,KLaMg6O8,1.2199
mp-978988,TbTmHg2,0.0
mp-776920,Fe3Ni2Te(PO4)6,0.07499999999999972
mp-976952,NaPuO3,0.0
mp-1026350,Te4W3Se2,0.3434999999999997
mp-867837,BeCrRu2,0.0
mp-2658,AlFe,0.049299999999999684
mp-36029,ErAgS2,0.6766999999999999
mp-628842,Ti3Al2NiO,0.0
mvc-8014,Fe2(WO4)3,2.5124
mp-772251,Li3Mn4NiO8,0.0
mp-864968,MnInRh2,0.0
mp-1076459,La7SmCrFe7O20,0.8537999999999997
mvc-15045,CaCoP2O7,2.7472000000000003
mp-772253,Li3Cr(NiO2)4,0.0
mp-1079230,SnH4,0.0
mp-6386,K2ZnGeO4,2.8518
mp-504576,OsOF5,0.7921
mp-977347,Hf5Al3N,0.0
mp-336,SmCo2,0.0
mp-29655,B2H4C,4.7668
mp-677152,Ho10Te7S10,1.5769999999999995
mp-569704,Tl2Ni(CN)4,2.2822
mp-763196,MnOF,0.0
mp-3879,Ba2CuF6,1.0293
mp-761697,Ti5Fe11O24,1.0304000000000002
mp-780044,LiCoOF2,1.0759999999999998
mp-1976,CaGa4,0.013700000000000044
mp-864924,NdMgHg2,0.0
mp-31488,Li3NbO4,3.7757
mp-277,Zr3N4,0.9707999999999996
mp-606617,CuSb2(XeF8)2,0.06940000000000035
mvc-13161,Cr(SiO3)2,0.5258999999999996
mp-1093766,Ca2ZnIn,0.0
mp-850234,Li3V3P8O29,0.8782
mp-1097238,LiYPb2,0.0
mvc-2321,Ba2MgCo2CuF14,0.7803
mp-676684,Sr4Nb2O9,3.25
mp-777465,Li3P3(WO6)2,3.6739
mp-568190,La8C8Cl5,0.0
mp-1095435,Ho2(NiB2)3,0.0
mp-1035197,Mg14VNiO16,1.186
mp-18101,K2Cd3S4,1.7876
mp-582988,Bi12PtCl12,0.8982000000000001
mp-570452,Y(SiAu)2,0.0
mp-34263,Mn2TcO4,0.05549999999999944
mp-1078035,Sm2Cr2C3,0.0
mp-1034123,RbMg14TiO16,0.012000000000000456
mp-542618,Tl2Mo9S11,0.0
mp-557327,Na3Li3Co2F12,1.8826
mp-5862,CrCuS2,0.3433999999999999
mp-754145,TbLuO3,4.6811
mvc-6034,SbF5,1.743
mp-25058,KMoP2O7,3.8588
mp-767105,LiFe2(PO4)2,1.3619
mp-2086,PuS,0.0
mp-540255,LiNiPO4,3.3517
mp-767744,Li2Ni(CO3)2,3.1111
mp-571594,K3AgSn3Se8,1.1216000000000002
mp-864667,NdTlAu2,0.0
mp-22369,FeSb6(Pb2S7)2,0.12040000000000005
mp-772059,Li5Mn4O8,0.0
mp-32393,Ni2P5O16,0.003400000000000014
mp-555074,Hg3AsS4Br,1.5311
mp-1036367,CaMg14CrO16,1.4038000000000004
mvc-14958,Ba2CaCr2F14,0.8707999999999999
mp-15171,K2MgSiO4,4.2165
mp-28978,Ba2S3,1.5978
mp-779184,Li3MnV(PO4)3,0.43110000000000026
mp-608717,EuMoClO4,0.0
mp-1087477,La2TcNiO6,0.0
mp-542297,Eu2SO6,0.0045000000000001705
mp-1028024,YMg14Cd,0.0
mp-640925,CuHgC4(SN)4,0.3338
mp-608072,SrIn,0.0
mp-957,HgSe,0.0
mp-1058527,CeS,0.0
mp-557683,Zn3(BO3)2,2.7833
mp-1078744,BaNdCo2O5,0.0
mp-1080288,CeSe2,0.7116000000000002
mp-567402,CdI2,2.3572
mp-690363,La11Mn12O36,0.005999999999999339
mp-558692,Sb2ClO2F11,1.8464
mp-18957,NaMnO2,1.2563999999999995
mp-763276,Sr3Co3O8,0.0
mp-626750,SrH4O3,4.4464
mp-566656,Sr3V4CdO14,3.1655
mp-565717,PbWO4,1.8677
mp-698480,Sb4H2SO10,3.3641000000000005
mp-773325,Li2V3O8,1.6302
mp-625488,Zn(HO)2,2.4946
mp-30571,Tl2Au,0.0
mp-1022600,Mg6ZnMo,0.0
mp-19292,Co(AsO3)2,1.993
mp-650858,Co6Ge2(CO)19,1.3465
mp-769147,Y2(SeO4)3,3.8169
mp-776939,LiVF4,2.1946000000000003
mp-579812,CeNiSb3,0.0
mp-1017021,Mg6CdW,0.0
mp-765253,MnF4,0.7666
mp-861492,LiNi3P3O11,3.5521
mp-1031157,Mg6TiSiO8,0.0
mp-554938,BaCoO3,0.0
mvc-11229,YFeO3,1.0499
mp-766154,VF5,3.3142
mp-862370,Sc2PdRu,0.0
mp-22548,Th2CoB10,0.0
mp-1086652,BaAgSF,1.4272999999999998
mp-772456,Li2Mn3CuO8,0.1080000000000001
mp-568495,Cu10Sn3,0.0
mp-1697,TbPt2,0.0
mp-1003402,CaMnO2,2.1634999999999995
mvc-3874,ZnBiO3,0.9831000000000004
mp-35082,BH6N,6.0656
mp-849266,LiB3H3SeO9,0.5655
mp-753532,Nb2O3F2,0.2096
mp-9273,K3Sb2Au3,1.1063
mp-768476,Li3VS4,1.3562
mp-773995,Li5V5(FeO6)2,1.3115
mp-1098681,CaMg30FeO32,3.1230999999999987
mvc-4973,CaMo2O5,1.0179000000000005
mp-22739,BaFe2S3,0.0
mp-561286,ZnS,2.0218000000000003
mp-1036309,Mg14MnSnO16,0.44120000000000026
mp-703376,UP3H7O8,2.3075
mp-18819,Ni2P2O7,3.7657
mp-30733,HoSnPt,0.0
mp-570997,RuCl3,0.0
mp-762512,Mn3CrCo2(PO4)6,0.0
mvc-3681,Ca3Cr2O7,0.9913000000000004
mp-510545,K2BeH4(SO5)2,5.2395
mp-12334,KTl(CN)4,5.5138
mp-19312,BaTb2NiO5,2.2149000000000005
mp-774832,Ba10Li2Bi4O21,0.0
mvc-8085,ZnCu(GeO3)2,0.003900000000000015
mp-1096453,CuPd2Au,0.0
mp-849543,V4(OF3)3,1.6749
mp-699453,RbAs2H5O8,3.8425
mp-764148,V3O5F,0.7855000000000003
mp-17168,Er3Ni7B2,0.0
mp-568509,Er(CoB)2,0.0
mp-510458,HCN,3.6348
mp-771131,NdZrO3,0.0
mp-775536,LiV4CuO12,0.3503000000000001
mp-626788,ReH3O5,3.9184
mp-556242,YF3,5.6172999999999975
mp-765715,Na3Ni7O12,0.0
mp-540538,Ga4Fe3,0.0
mp-22960,YbCuBi,0.09949999999999992
mp-781681,LiMn(PO3)4,1.0853
mp-1098867,YMg30NbO32,0.0
mp-754856,Li7Y7ZrS16,1.7404000000000002
mp-677026,Ca10Mg7Al6Si17O60,4.3438
mp-17673,Lu3O2F5,5.6393999999999975
mp-684004,YbCeS3,0.26620000000000044
mp-1099336,SrMg6Si,0.0
mp-17623,SmCo9Si2,0.0
mp-770064,LiMnPCO7,0.9788
mp-761707,Li2CrCo(PO4)2,1.0351999999999997
mp-680237,K10Th3(P5S18)2,2.4437
mp-391,HoAl2,0.0
mp-755541,Cs3YO3,2.2607
mp-21298,NpSi2,0.0
mp-1028272,Mg14TiSn,0.0
mp-542996,Ta6Fe16Si7,0.0
mvc-1098,Ba2V3O8,0.0
mp-23257,IF5,4.6815
mp-1033422,BaMg6CO8,0.0
mp-998555,InSnBr3,1.7489
mp-675045,Li7VP4,0.0
mp-865934,YbF2,6.7345000000000015
mp-19001,SrMnO3,0.8108999999999997
mp-866789,Gd5(C2Cl)3,0.0
mp-698793,Ba5SrLa2Fe4O15,2.4153
mp-685413,LiNbO3,0.0
mp-12128,Li2MgIn,0.0
mp-770595,Li2CrO3,0.0
mp-631480,IrOs2Br,0.0
mp-1018158,DySb2,0.0
mp-7935,USbTe,0.0
mp-771931,V4CrCuO12,0.6704999999999999
mp-1076095,K5Na3Ta4Nb4O24,1.6091
mp-600864,Ba3Nb2CoO9,1.7212
mp-1098585,Mg30BiBO32,1.0478999999999994
mp-1077078,KCN,5.0381
mp-865640,TiGeRu2,0.0
mp-542451,Rb2NaAl3F12,7.1465
mp-20542,Pr(MnGe)2,0.0069000000000007935
mp-774395,Fe10O11F9,0.0
mp-31217,Cu8O,0.0
mp-705343,Mo4P9O32,0.20309999999999995
mp-1094626,Mg5Ga,0.0
mp-776808,Li11Fe6F29,3.2092
mp-676704,Yb10Ti6O27,0.0
mp-555818,Cu2SiPbS4,1.3388
mp-779058,LiV2OF5,0.6409
mp-1086664,RbCd4As3,0.0
mp-1026515,Mg14NbW,0.0
mp-13696,EuCuO2,0.0
mp-1030295,Te3MoWSe,0.005100000000000104
mp-570748,Zn13Sb10,0.4778000000000002
mp-31869,LiFe(PO3)4,2.9639
mp-763982,Li3TiV2O6,0.0
mp-1079874,ErSnPd,0.0
mp-1098912,Mg30VFeO32,2.0005000000000006
mp-1925,ZrS,0.0
mp-773922,Li8Ti6Mn7O30,0.9131
mp-19845,TiPbO3,1.5827999999999998
mvc-11332,Ca5(VN3)2,0.0
mp-574529,Al(SeCl2)2,1.3809
mp-764646,Mn2CrNi3(PO4)6,0.0
mp-21338,U(Mo3S4)2,0.0
mp-762949,Li14Cr9(P2O7)8,2.604
mp-1016377,CsHfMg6,0.0
mp-1079846,ThAlIr,0.0
mp-11539,SmAl3Pd2,0.0871000000000004
mp-570231,CsCdBr3,0.6968000000000001
mp-616640,Sr2Fe2O5,1.1439
mp-5309,KAuF4,2.4468
mp-767926,Li4Ti4Mn4VO18,0.8483
mp-1021690,Mg6VCr,0.0
mp-22566,TlInS2,0.6884000000000006
mp-549158,InCuO2,0.2404000000000001
mp-778330,FeOF,0.0
mp-560278,Er3B5O12,5.3497
mvc-7248,BaCuReO5,0.0
mp-10398,HoNi4B,0.0
mp-778729,Mn3(OF2)2,0.0
mp-774224,InH12S2NO12,3.843
mvc-3739,CaWF5,3.7607
mp-1029595,Na3OsN2,0.6867000000000001
mp-1078878,Ho2InNi2,0.0
mp-74,Rh,0.0
mp-699284,Li2HN,2.6355
mp-559379,SbTeClO3,3.1498000000000004
mp-853155,V3(O2F)2,0.5533999999999999
mp-20771,Eu(ZnGe)2,0.002299999999999969
mp-11397,Ga3Ni2,0.0
mp-504907,K(MoO2)4,1.0844999999999998
mp-773349,Li5Mn3(NiO5)2,0.3609
mp-1037731,YMg30SnO32,0.0
mp-30858,ZrPt3,0.14219999999999988
mp-770990,Li5Ni5(SbO6)2,0.0
mp-697807,LiMn4P7O24,0.9027
mp-1078223,Eu(Ag2Sb)2,0.0
mp-862976,PmZn2Au,0.0
mp-30170,Ba4Ge20Pd3,0.0
mp-23357,Sr2Bi2O5,2.2554000000000003
mvc-5978,Mg(WO2)2,1.1246999999999998
mp-772216,LiNb8O14,0.0
mp-1072437,YSiNi4,0.0
mp-763679,Li2Ti2VO6,0.27830000000000066
mp-744264,CrH15S2O15,3.3328
mvc-2592,ZnCr5O7,0.035499999999999865
mp-1967,TaTe2,0.0
mp-705574,LiMn16O32,0.0
mp-866283,CaHoRh2,0.0
mp-764442,Li3V2(O2F)2,0.9313
mp-705371,Li3Cr4P9O32,0.5308999999999999
mp-567505,SiC,1.7772000000000006
mvc-12314,Y5Be6Fe3(SiO5)6,1.8256
mp-1027869,Mg14FeCu,0.0
mp-9925,Ca2Sb,0.0
mp-6822,NaGa(SiO3)2,4.1707
mp-510125,Ce(Ni2Sn)2,0.003500000000000725
mp-867182,Sm2ZnIr,0.0
mvc-9356,PrZn(BiO3)2,0.0
mp-12856,Pr(AlSi)2,0.0
mp-735545,Rb2FeH2Cl5O,2.1756
mp-1014230,TiZn,0.0
mp-771224,Li5Ti2Ni3O10,0.5524
mp-763103,LiMnF3,3.6206
mp-1024989,YB2Pd2C,0.0
mp-1098390,KMg30CO32,0.3273000000000001
mp-28062,Sb2F7,3.8056
mvc-13419,CaLa2CrO6,0.0
mp-31537,LiCoPO4,2.9335
mp-778111,Li3Bi3P8O29,0.5346
mp-5746,MgTe2O5,2.5611
mp-764629,Rb3NaV4H2O13,2.9785
mp-9771,UTi2O6,0.003499999999999837
mp-780140,Li5(CoO2)4,0.5904000000000003
mp-11670,BaYSi4N7,2.7326999999999995
mp-30562,Sc2Co,0.0
mp-1028347,Mg14CrNi,0.0
mp-765760,LiMn2OF3,1.3783
mp-1098076,CeMg6B,0.0
mp-1014318,Cr3N2,0.0
mp-569257,Ca3(B3Rh4)2,0.0
mp-583084,Rb3Er3(PS4)4,2.2833999999999994
mp-21359,SbRh2,0.0
mp-18984,Na2ZrNi(P2O7)2,3.8452
mp-761823,Na9(WO3)16,0.0
mp-769980,Li4AlCr3O8,3.1818000000000004
mp-17922,Ca2P2O7,5.5138
mp-1023281,Mg6AlSb,0.0
mp-568526,SrHg2,0.0
mvc-2996,SrMgNi(PO4)2,3.9873
mp-1086672,MnO3,0.0
mp-1080270,CeSe2,0.7145
mp-22266,GdB6,0.05209999999999937
mp-585401,LiCoPO4,2.6302
mvc-4136,Ca2TaCuO6,0.0
mp-778446,Cr2(PS4)3,0.0
mp-555393,KBi6BrO9,2.3298
mp-1096809,Al2ZnS4,2.1875
mp-757966,Li3Sn2(PO4)3,0.0
mp-770914,Na3Li3Fe2P2(CO7)2,3.8264
mp-14378,Li12Al3Si4,0.0
mp-3598,BaRuO3,0.0
mvc-7371,MgCr2O7,2.4303
mp-999290,PuCoC2,0.0
mp-1097403,SrYPt2,0.0
mp-26409,LiTi(PO3)4,0.16710000000000047
mp-540368,Li2Ni(PO4)2,0.0020999999999999908
mp-20380,HoMnSi,0.0
mp-626219,H5ClO6,4.7683
mp-619577,K2V2P4O15,2.8177000000000003
mp-763206,Co3OF5,0.8431
mp-22513,Dy3TlC,0.0
mp-973788,Ho2CuTc,0.0
mp-761151,Zr6O11,0.3600000000000003
mp-650024,RbLiBi2(MoO4)4,2.9643
mp-642293,Y6Te2Pd,0.0
mp-570504,Yb11InSb9,0.6565000000000003
mvc-10858,Ca3(CoN2)2,0.4351
mp-13873,Ca(GaSe2)2,2.0981
mp-23339,NaBrO3,4.4962
mp-504354,LiBi(PO3)4,5.1177
mvc-9750,Mg(SnO2)2,0.0448000000000004
mp-11176,Ca3(SiIr)4,0.0
mp-20025,Mn(GaS2)2,1.3204000000000002
mp-862960,PmSn3,0.0
mp-1030934,LiCeMg6O8,0.0
mp-27723,USeO5,1.7329
mp-7097,ThAs2,0.0
mp-762906,Li2Fe3CoO8,0.0
mp-773614,Mn3(SeO3)4,0.6671000000000001
mp-1098627,Mg30AlCoO32,1.2557999999999998
mvc-669,Cr(WO4)2,0.0
mp-7878,Ca(AgGe)2,0.0
mp-1025485,LaZn2Co,0.0
mp-1079577,Ni(ClO3)2,0.0
mvc-2645,Ta2Zn2FeO8,2.8068000000000004
mp-558480,K2P2O5F2,5.0435
mp-35841,Li2CuGe,0.0
mvc-572,Sr2Mn2GaO7,0.0
mp-1094620,MgGa,0.0
mp-554892,K9Co2S7,0.0
mp-1027687,MoSeS,0.6042000000000001
mp-10923,Ca2Co12P7,0.0
mp-1009748,ScC,0.0
mp-31232,In2PO5,2.2379
mp-567308,Sc,0.0
mp-20656,DyMn12,0.02199999999999936
mp-675430,Sm4Ag2Se7,1.5147
mp-763016,FeOF,1.7737
mp-18884,Na4CrO4,1.9149
mp-1973,NbGa3,0.0
mp-569892,Ca9B2(CCl2)4,1.3725999999999998
mp-1077752,TbCu4Au,0.0
mp-770417,Li4Mn2VNi3(PO4)6,1.4568
mp-555904,NaSmGeO4,3.5476
mp-1021654,CeMg6Sn,0.0
mp-5448,Pr3SbO7,2.7215
mp-12049,Nd2Sb,0.0
mp-20797,Yb(NdS2)2,1.7644000000000002
mp-1075905,SmCrO3,1.7362000000000002
mp-763490,Li4Ti3Nb3Cr2O16,0.0
mp-1065783,LaRh3,0.0
mp-753478,BiOF,2.5707
mp-850979,V3(O2F)2,1.0171
mp-128,Ge,0.0
mp-1035509,SrMg14FeO16,2.4963999999999995
mp-28126,K2GeTe4,1.0714
mp-540627,K2Ba(SO)12,2.7286
mp-1096338,NaLiHg2,0.12360000000000015
mvc-318,Sr2YV2GaO7,0.0
mp-558241,TaTl2AgS4,2.0351
mp-28892,PH4N3,4.6014
mp-861686,Li5Fe5Si7O24,2.5977
mp-853187,LiTiMnO4,0.02160000000000029
mvc-6391,MoF5,1.2841
mp-1074858,Mg7Si4,0.0
mp-556027,SiO2,2.4692
mp-1040382,Mg30TiNbO32,0.0
mp-21086,Fe2GeS4,0.4043999999999999
mp-6078,Na2Cd3Si3O10,2.4468
mp-763626,LiFe(PO3)4,2.5387000000000004
mp-755491,Sr2Ti6N2O11,2.1566
mp-861269,Cd2PbO4,0.0
mp-744266,Sr20Fe3Co7(MoO6)10,0.8479999999999999
mp-1097230,Si2TcIr,0.19799999999999995
mp-560982,K2Cd(NO2)4,2.4568
mp-1882,CaCu5,0.0
mp-778880,Co4(P2O7)3,0.8935000000000001
mp-767137,Li3Sb17S27,0.5084
mp-865039,HfTc2Sn,0.0
mp-703312,RbPH4O5,5.1997
mp-570820,La4CdRu,0.0
mp-1395,VRu,0.0
mp-28048,KTlBr4,1.8089
mp-1094370,Mg2Ti,0.0
mp-11468,NdHg2,0.0
mp-574112,Ti(AlCl4)2,0.3218000000000001
mp-1096434,Mg2TlIn,0.0
mp-505081,Ti2NiP5,0.0
mp-1080238,MnHO2,0.0
mp-1073919,Mg6Si5,0.0
mvc-10634,BaWF7,3.276
mp-770554,Mn3Co3(SnO8)2,1.0854
mp-780154,Li4FeO3F,2.7852
mp-1087538,Sm(SiIr)2,0.0
mp-566368,K2Te(WO4)3,2.8047
mp-696189,TlH6(NO4)3,1.8483
mp-19806,USiIr,0.0
mp-571144,Sm3Te4,0.0
mp-1016278,BaSrMg6,0.0
mp-1076054,BaSr7Co4(CuO6)4,0.0
mp-1079170,NaZnBr3O5,0.3881999999999999
mp-1095833,Tl2HgTe,2.1311
mp-2318,Nb2C,0.0
mp-1099036,CaMg14VO16,1.5413000000000006
mp-558775,Al3Pb5F19,5.0114
mp-644281,Mg7TiH16,0.0
mp-18909,BaNi2(PO4)2,3.7407
mp-676060,Gd2CuO4,0.0
mp-676723,Li2SO4,5.55
mp-616258,NaMnF3,2.927
mvc-12368,CaTi2O5,3.1348000000000003
mp-705425,Ni6P7O24,0.0
mp-614964,Ba2PrCu3O8,0.0
mp-774085,Li5Nb2V3O10,0.2115999999999998
mp-1959,PuO2,0.0
mp-11859,La(SiAu)2,0.0
mp-764661,Li3CoNi3O8,0.0
mp-974023,In3Cu,0.0
mp-771051,Fe2Ni3P6WO24,0.9691
mp-685478,Na2PdO3,0.9613
mp-1095371,LiYbSb,0.4262999999999999
mp-773952,LiP5WO15,2.8415
mp-813,ScAl2,0.0
mp-554109,CuSeO4,0.0
mp-9086,CsDyS2,2.1448
mvc-11949,CaCr2F10,1.7489
mp-777919,Na3CoO3,1.7328
mp-1021708,Mg6TiV,0.0
mp-1094716,CeMg2,0.0
mp-1063920,Ba2UCo,0.0
mp-28413,Na2(GaSb)3,0.19130000000000005
mp-1008681,Sc,0.0
mp-780126,Li3MnSi2O7,0.9105
mp-1018054,HfPt3,0.0
mp-567474,Li2CrCl4,0.3655
mp-766158,VF4,2.7245
mp-28774,KSnF3,3.5456000000000003
mp-601871,H12W3C4S2Cl9O2,0.008500000000000063
mp-1098694,RbMg30MnO32,1.888
mp-16491,SrAl9Co2,0.09640000000000004
mp-27526,K3InF6,5.322100000000002
mp-1096029,CaAg2Pb,0.0
mp-557482,Ca5As3O12F,3.9518
mp-559722,Hg3(NO4)2,0.8579000000000001
mp-23163,CsBi2,0.0
mp-21915,Ce3Co4Sn13,0.0
mp-767472,LiVSiO4,2.0159
mp-625571,H2W2O7,2.0604
mp-863029,ErCl3,3.7739
mp-862758,PrMgHg2,0.0
mp-1091404,UInRh,0.0
mp-689498,Ba4PrMn3O12,0.0
mvc-5944,Zn3Si4(WO7)2,1.9788
mp-768503,Lu(PO3)3,5.741099999999999
mp-1079572,LaNiSb2,0.0
mp-567702,CsReCl4,1.1342
mp-19338,LiMoO2,2.3452
mp-673255,Cu9Se8,0.0
mp-600190,LaH24C3N3(Cl2O)3,4.1757
mp-21947,Ce(SO4)2,1.0343000000000002
mp-1095132,Ga2O3,2.0078
mp-14276,RhPb2F7,1.7702
mp-27146,Cs2Sb4S7,1.6153000000000004
mp-21533,CuP2PbO7,0.7847
mp-765846,LiMnPO4,3.2595
mp-974631,K3Tm,0.0
mp-1034083,NaMg14TiO16,0.0
mp-541403,Hg7(P2Br3)2,1.5236999999999998
mp-1057758,BaN,0.0
mp-764789,LiMn2OF3,1.0545000000000002
mp-651051,Te2W3(CO)15,1.2205
mp-676865,BaGeO3,1.4290000000000005
mp-756799,Ti2Nb2(CuO4)3,0.0
mp-861983,Ti2MnFe,0.0
mp-1013808,Na3Ni2(GeO4)3,0.0
mp-763444,Li5V(PO4)3,1.5841
mp-3255,SrCu2O3,0.0
mp-763875,LiMn3OF8,0.2533
mp-865398,Ac2ZnIr,0.0
mp-569788,LiZnGe,0.0
mp-13840,Ho3ScO6,4.423400000000001
mvc-13588,YCu3(WO4)6,0.04499999999999993
mp-23004,CsMgCl3,5.126099999999999
mp-1080332,CeSe2,0.9205
mp-770745,Li2Cr2O7,1.521
mp-689958,Li2Fe3(P2O7)2,3.8427
mp-5132,YPO4,5.8009
mp-780926,Li2VPO5,1.0671
mp-1034101,NaMg14TiO16,0.0
mp-38505,GaCuSe2,0.0
mp-1027328,MoW3(SeS3)2,0.5672999999999999
mp-780519,Fe3(OF2)2,1.1625
mp-763608,LiMn7O12,0.4108000000000001
mp-1096856,Ca3AsP,0.09940000000000017
mp-746672,NiP2H2O7,4.3884
mp-763803,Li2Mn2F7,1.2666
mp-774255,K3CrPCO7,2.6393
mp-999508,MnSiNi2,0.0
mp-36806,Fe11(NiO3)8,0.3506999999999998
mp-677391,Tm4Zr3O12,4.164999999999999
mp-21026,Li2InPt,0.0
mp-761569,Li2MnP2O7,2.5407
mp-764732,LiCo2(PO4)3,0.0
mp-866666,La2Mg(NiH4)2,0.8984000000000005
mvc-9018,LaMgTaFeO6,2.8630000000000004
mp-504189,Li3Fe3(PO4)4,2.0208
mp-608595,NaBrO3,0.13920000000000005
mp-9359,ZnSi(AgO2)2,0.9478999999999996
mp-866063,NdDyMg2,0.0
mp-779839,Li4Ni2C4SO16,0.0
mp-24889,Fe4Co3(PO4)6,1.7839
mp-770124,GdTa7O19,2.7025
mp-14091,AlAgSe2,1.136
mp-656884,Ni9O10,0.0
mp-1078111,CuMoS4N,0.0
mp-557082,H2O,5.4788
mp-772397,Li5WNO4,3.5267
mp-973055,Hg3Au,0.0
mvc-4506,Ca3V2(Si2O7)2,1.9242
mp-546,HoRh2,0.0
mp-8570,Ba3Zr2S7,1.0059
mp-763175,Li2VO2F,1.7652
mp-25550,MnPO4F,0.002800000000000025
mp-754044,Ho2TiO5,2.9405
mp-862711,Sc2CdIn,0.0
mvc-10158,MgFe2P2O9,2.006
mp-776362,Zr2N2O,1.5772999999999997
mp-772326,TiMn5(PO4)6,0.0
mp-546202,Li4CO4,4.177
mvc-5853,Mg2CoWO6,2.6152
mvc-7638,Ti2ZnCoO7,0.31799999999999984
mp-1080433,YbNi,0.0
mp-780337,LiCr4(PO4)3,1.0675
mp-622591,BaTbF6,0.0
mp-569576,La5(SiN3)3,1.9652
mp-758689,Li3CuF4,0.8418999999999999
mp-23738,RbMgH3,2.5405
mp-773749,Co3OF5,0.35239999999999994
mp-706642,H3ClO5,3.4848
mp-560815,AlPO4,5.4968
mp-19488,Rb2MnSO4F3,1.5573
mp-1077944,HgPd5Se,0.0
mp-1027819,Mg14TiCu,0.0
mp-1020163,Na3Li2Al(SiO4)2,4.051
mp-672208,Ce2Si2O7,0.0
mp-288,PtS,0.3669000000000002
mp-21419,CeMg2,0.002699999999999925
mp-752643,NaTi2O4,0.0
mp-756593,Ta3(OF)5,2.197
mp-764934,Na(NiO2)2,0.0
mp-763436,FeOF,0.8246000000000002
mp-14246,Ba(AlS2)2,3.6497
mp-19767,DyCoSi,0.0
mp-770330,LiVBO4,0.20860000000000006
mp-1027168,Te4Mo3W(SeS)2,0.2366999999999999