mpid,formula,gap pbe
mp-755243,Li5CuSO2,2.3831999999999995
mp-4852,Ni(RhSe2)2,0.0
mp-10376,Cr3SnN,0.0
mp-766,As2Ru,0.44920000000000027
mp-776062,Li2FePO4F,3.9356
mp-770778,VCrO3,1.3705000000000007
mp-16705,Pr2O3,3.6593
mp-22228,DyCoSn,0.0
mp-568411,Th2Ga,0.0
mp-1028332,CeMg14Al,0.0
mp-1023277,HfMg6Al,0.0
mp-1036880,Mg30CoCO32,2.2078
mp-1028040,YMg14Cr,0.0
mp-571100,CsAgBr2,1.796
mp-6388,Ca4SmB3O10,4.3844
mp-978282,Mg3Hg,0.0
mp-28955,Mg3BN3,1.3798
mp-565213,Lu3Fe5O12,1.6294999999999995
mvc-3010,SrCaV(PO4)2,2.6391
mp-562050,Cs2NaTiF6,0.1036999999999999
mp-720439,H4Ru3C9N2O9,2.5809
mp-1020193,KNO3,2.8988
mp-771593,Li5Fe2Ni5O12,0.0
mp-863865,Li3V3P8O29,1.0015
mp-764031,Li3V3P8O29,1.2024
mp-707307,Nd2P3(HO2)5,5.675
mp-554579,CrCuS2,0.4142000000000001
mp-992,CaGa2,0.0
mp-625788,La(HO)3,4.0057
mp-1026443,SrMg14Ti,0.0
mp-496,SrSi2,0.0
mp-541259,SbBr5F6,1.7102
mp-684787,U2Te3,0.0
mp-19154,Ba(FeO2)2,1.7429
mp-865802,LuRh3,0.0
mp-997548,LiFe2(PO4)3,0.0
mp-972228,Zr3As2,0.0
mp-1096789,Al2Zn2S5,1.2546
mp-25169,KTh2V3O12,3.3455000000000004
mvc-10716,Sr2YTi2GaO7,0.0
mp-777680,Li2VF5,2.447
mp-27939,Er(PO3)3,5.7482000000000015
mp-19045,Ba2MnZn2(AsO)2,0.1849000000000008
mp-1095029,Dy(BIr)2,0.0
mp-562537,Ta2Ni3S8,0.5258000000000003
mp-982017,PrYTl2,0.0
mp-31922,LiMnPO4,3.783
mp-1078183,CaNi5H,0.0
mvc-10087,Ta2Zn(CuO4)2,0.3660000000000001
mp-982975,LiBeO3,0.0
mp-1017578,HfBRh3,0.0
mp-561746,BaGd2CoO5,0.8241
mvc-859,MgNi3(P2O7)2,3.8913
mvc-9652,Pr(MoO3)2,0.5323000000000002
mp-640448,Na2Mn2Si2O7,2.7027000000000005
mp-1022460,Mg6ZrCr,0.0
mp-636773,Ce3(AlI)2,0.0
mp-1077701,Ca7MgTiMn7O20,0.0
mp-1017180,Mg6CdBi,0.0
mp-1018106,YbBiPt,0.0
mp-27133,BiPS4,1.4838999999999998
mp-566232,Na3LiWO5,3.8186
mp-23240,CoCl2,0.15389999999999993
mp-669370,Ta5AuS,0.0
mp-714906,V2O3,0.0
mp-764957,Li2CoSiO4,2.7567
mp-971950,Zn3Sn,0.0
mp-19564,NaMn6P7O24,3.4975
mp-566876,Mn(PO3)3,1.1659
mp-776906,Ti3MnFe2(PO4)6,1.1609999999999996
mp-980385,Tb3Er,0.0
mvc-3345,TiNb2Zn2O8,0.0
mp-540312,Li2V(PO4)2,1.5973000000000002
mp-853199,LiCo2OF3,1.7796
mp-559635,Sr3CaIrO6,0.0
mp-764164,Mn6O5F7,0.0033000000000000806
mp-867477,Eu2SnHg,0.0
mp-5451,Er(FeGe)2,0.0
mp-7586,Ni3C,0.0
mp-1096284,TaGaTc2,0.0
mvc-16044,Sr4MgCr2(SO3)2,1.8934000000000009
mp-1075481,Mg5Si6,0.0
mp-767573,Na2ErPCO7,4.3992
mp-754614,LuNbO4,3.2766
mp-504810,Rb2Li14Pb3O14,2.0836
mp-862722,LiHoAu2,0.0
mp-540747,Nb3SiNi2,0.0
mp-25498,CrH36C12S6(ClO2)3,2.4321
mp-1037325,Mg30CuSnO32,0.16390000000000082
mp-971657,Au3N,0.0
mp-999336,NdPd,0.0
mp-772659,Li3CrO4,0.825
mp-557560,LiH4SNO4,5.2109
mp-780836,Li4Fe3OF11,2.6304
mp-676450,Li2UBr6,0.0
mp-763351,Fe2O3F,0.0
mp-865194,TmF3,5.3727
mp-632475,NbS2,0.0
mp-752831,LiCuF2,1.5931
mp-1310,TbRh2,0.05310000000000058
mvc-11573,VO2,1.0171
mp-1032301,NaMg6CoO8,0.07160000000000011
mp-29008,Li6MgBr8,4.6843
mvc-4292,Y2Fe3(SiO4)3,3.8481
mvc-4147,Mg2TaCuO6,0.0
mp-720921,Na2Te2H4O7,3.7368
mp-13336,RbSc5Te8,0.5602
mp-567832,TiTe,0.0
mp-763482,VPO5,2.2703
mp-1098928,SrMg30NiO32,4.0701
mp-1031,GdCd,0.010399999999999745
mp-769152,Sc(ClO4)3,4.0634
mp-559168,Sb2(KrF4)5,1.1692
mp-1025565,HoO3,0.2424
mp-772077,BaYI5,2.9223000000000003
mp-1084815,Nd(SiPt)2,0.0
mp-556877,Ba7Ru4Br2O15,0.0
mp-706412,Co2SnO4,0.415
mp-581425,ZnS,2.0194
mp-10326,Zn(ReO4)2,3.9894
mp-27566,K3(PtO2)2,0.0
mp-631566,TaAuBr,0.0
mp-19433,LiScMo3O8,1.189
mp-24045,AlP(H2O3)2,5.4239
mp-11488,LaTl,0.0
mvc-3525,VZnF4,1.2474999999999998
mp-909679,FeCO3,0.0
mp-762857,LiFePO5,0.0
mp-1074938,Mg7Si4,0.0
mp-776136,Li2VCrO4,0.975
mp-1001836,MnGa,0.0
mp-764930,Sr2Fe23O38,0.0
mp-555085,KAu(NO3)4,2.0172
mp-2700,CaSi2,0.5903
mp-11212,LaAsPd,0.0
mp-755001,Er2TeO6,2.4523
mp-29345,LiGaI3,2.2473
mp-1018150,NbTe2,0.0
mvc-11612,Mn2ZnO4,0.0
mp-866187,Ti2ZnTc,0.0
mp-1025919,MoW2(SeS2)2,0.6116999999999999
mp-971836,Zn2NiIr,0.0
mp-1076176,La7Sm(Fe2O5)4,0.8200000000000003
mp-778554,Li2MnF4,3.8539
mp-707977,AlPO4,5.5406
mp-1022485,Mg6FeCo,0.0
mp-975511,InSb3,0.0
mp-1028095,YMg14W,0.0
mp-1076711,SrCuO3,0.0
mp-764401,MnFe(PO4)2,0.8949
mp-762541,Li4Fe(SiO3)3,3.0729
mvc-16050,Sr4MgFe2(SO3)2,1.0546000000000002
mp-705638,Fe21HO32,1.3254
mp-556093,CuMoF6,0.0
mp-773775,Li7Cr7(P4O17)2,2.2607
mp-29450,CuSe3I,1.0589
mp-780255,Gd3NbO7,2.282
mp-862895,Er2ZnRu,0.0
mp-7707,Zr(SiNi)2,0.0
mp-13207,CeZnPO,0.0
mp-770752,Ce(WO4)2,1.7063
mp-592,TiRu,0.0
mp-984872,CsPb2Cl5,3.8183
mp-607934,V2Cu2O7,0.06530000000000014
mp-631505,BeCuBr,0.07699999999999996
mp-698569,Li21Mo11O32,0.07970000000000077
mp-6948,KNaO,2.1323
mp-753063,Li3CuF6,0.6689999999999999
mp-569326,Zr4(AlC2)3,0.0
mp-1021351,Mg6TiW,0.0
mp-705961,Li5Mn12O24,0.0
mvc-148,Ba2Tl2Zn3(NiO3)4,0.0
mp-765885,Mn(CoO3)2,1.1719
mp-1724,Er2Fe17,0.0
mp-773339,Li4FeCo3O8,0.9078
mp-28800,K2Bi8Se13,1.1286
mp-1097143,Be2CoRu,0.0
mp-30360,TmAg3,0.0
mp-1078458,CrFeO3,1.7407
mp-697800,LiFe4P7O24,2.3368
mp-1074122,Mg4Si7,0.0
mp-15604,TmB2C,0.0
mp-1077556,TbSnGe,0.0
mp-1094299,SrMg,0.0
mp-1018954,PuSe2,0.0
mp-769263,TbInO3,2.5935
mp-973631,Lu2AlRu,0.0
mp-648117,Si2Os3C12(ClO2)6,2.5585
mp-1039222,MgCd,0.0
mp-605752,Hg2H12C4I5N,1.7551
mp-540355,LiCoP2O7,1.0325
mp-600514,V3H6CNO7,1.9649
mp-555958,Ba2Li3(PO3)7,5.451099999999999
mvc-11618,Mg(CoO2)2,1.8762000000000003
mp-10209,Y3Al3NiGe2,0.0
mp-573471,Li17Sn4,0.0
mp-764878,LiFe2(BO3)2,1.6772999999999998
mp-1076889,La7SmV7CrO20,0.22330000000000005
mp-773277,Co(CuO2)4,0.0
mp-1080688,LaNiO3,0.0
mp-1093685,HfTaFe2,0.0
mvc-12792,ZnCr2F12,1.2360999999999998
mp-8161,CaPdF4,1.1613000000000002
mp-771444,Li3MnAsCO7,2.3055000000000003
mp-780740,Fe4OF7,0.0
mp-555736,BaHg2(ClO)2,1.6109999999999998
mp-605821,Nd3SeBrN2,1.2121999999999995
mp-761556,MnCoO4,0.0
mp-773677,Mn3CuNi2(PO4)6,0.0
mp-736446,InH8C8N4Cl7,2.0291
mp-9435,La3ZrSb5,0.0
mp-1020115,MgSiO3,4.5433
mp-1019788,K4Al3(SiO4)3,0.0
mp-1062,CeMg,0.0
mp-1096301,MgAgPd2,0.07929999999999993
mp-505601,Nb3Co3C,0.010200000000000207
mp-20554,InAgSe2,0.01089999999999991
mp-768164,LiGePCO7,3.789
mp-567451,MnH8C2NCl3,1.6327000000000005
mp-866209,Pm2SiNi,0.0
mp-37836,Al(HO)3,4.9076
mp-1072880,Nd2Fe,0.0
mp-32340,K3(NiO2)2,1.3664000000000005
mp-530977,Al2CuO4,0.008000000000000007
mp-771771,Ta2PbO6,3.5547
mp-781825,Li9Cu2(HO2)4,0.0
mp-754392,BaEuO2,0.0
mp-33500,Cr2HO4,0.05640000000000001
mp-1018652,KCdSb,0.0
mp-1036130,NaMg14MnO16,0.5193000000000003
mp-554227,CaU(SeO4)2,1.9516
mp-10914,K3Cu5O4,1.5556
mp-566483,Na2FeNiF7,2.7689999999999997
mp-505781,MnGePd2,0.02150000000000052
mp-545544,Ba2TaBiO6,2.5384
mp-995237,SiH6CI3N,0.815
mp-541418,BaTm2CoO5,2.059400000000001
mp-972217,Ti2CuTc,0.0
mp-766922,Li4Fe3Co2Ni3O16,0.0
mp-1028316,RbMg14V,0.0
mvc-10461,MgCo2(CuO4)2,0.0
mp-29117,Ta3TeI7,0.5405000000000002
mp-996966,KAgO2,0.5995
mp-764960,LiCr(CO3)2,3.1033
mp-1017357,NaSrMg6,0.0
mp-765854,Li3V2F12,0.03639999999999999
mp-676874,Dy2Ti2O7,1.8367
mp-21658,Sm5Ga3,0.0
mp-756342,AgBrO4,0.8743000000000001
mp-553949,Ag2Hg2(TeO4)3,0.13640000000000008
mp-2696,MgAg,0.05159999999999965
mp-19113,CoTeO3,2.3111
mp-1099089,Mg14CoNi,0.0
mp-763093,Li2Mn3F8,3.2135
mp-1073950,Mg6Si5,0.0
mp-505223,Ba2Tb2Ti2Cu2O11,0.0
mp-1096367,Sc2NiPd,0.0
mp-983479,Sm3Si,0.0
mp-6441,K2PO3F,4.4626
mp-863671,Pm2CuRu,0.0
mp-1026705,Mg14NbSi,0.0
mp-632685,NaH4CNO2,5.3232
mp-685097,HfO2,4.4133
mp-1096432,CeSe2,0.7807999999999999
mp-722269,AlP3(HO5)2,5.7405
mp-1097933,Sr2Mg,0.0
mp-1093955,YHg2Au,0.4448000000000003
mp-4828,HfNi2Sn,0.0
mp-1096219,MgGePd2,0.39590000000000014
mp-607960,Cd27Pd8,0.0
mp-24638,Mg3P2(HO)16,4.9866
mp-28579,Hg3(TeI)2,1.3859
mp-27271,Tl8Ge5O14,2.2104
mp-1076408,BaSr7Mn2(FeO4)6,0.0
mp-641100,UTl2Cr2O10,1.9753
mp-568891,MnSbRh,0.0
mp-31780,Fe4(PO4)3,1.4228999999999998
mvc-4648,Mg(BiO2)2,1.4665
mp-764494,Li2VFeP2(O4F)2,1.6822
mp-765540,Li2VF5,2.3316
mp-15931,NdCrS3,0.16500000000000006
mp-773467,Li2Ni3WO8,0.0
mvc-721,YCo(WO4)2,1.6324
mp-1016059,CrN2,0.0
mp-703306,Li2H2BrN,0.0
mp-29393,UNb2O7,0.0
mp-554119,KSnAsS5,1.7082
mp-11879,BaNiSn3,0.0
mp-540332,Nb2(PO4)3,0.0034000000000000696
mp-10086,YSF,1.3132
mp-782697,Li3(FeO3)2,0.0
mvc-8370,Ge2MoO6,1.6082
mp-767193,Mn7O7F,0.0
mp-557282,Rb2Ce(NO3)6,1.491
mp-761540,Co3SbO8,0.0
mvc-7995,Ta6Zn3(FeO6)4,2.5905
mp-18594,K3AsSe3,2.1092
mp-565589,Rb2CaV2O7,3.4711
mp-3262,Tm(CoSi)2,0.0
mp-12510,LaSnPd,0.0
mp-763219,FeOF,0.4380999999999999
mp-1029309,Na2HfN2,0.0
mp-1070137,BaSi3Pd,0.0
mp-865235,Ti6Al16Ni7,0.0
mvc-10772,Sr2GaBi2O7,0.0
mp-861532,Li3VF5,2.5098000000000003
mp-625948,H7NO6,3.4969
mp-863294,RbVGa(PO5)2,0.6353000000000001
mvc-631,AlMo(WO4)2,2.3592
mp-631422,CuSiBr,0.0
mp-561486,Na2Mg5(PO4)4,4.9369
mp-1022724,CaC4,0.0
mvc-740,Ta(WO4)2,2.4493
mp-631338,LiZrSc,0.0
mp-1080803,USnIr,0.0
mp-1029359,CaHfN2,0.3495999999999997
mp-851015,LiMn3(BO3)3,0.4291
mvc-15620,Zn2CrSbO6,2.0248
mp-768785,LiSn2(SO4)3,0.0
mp-673807,Na3Sm7Cl24,4.3100000000000005
mvc-12615,VO2,0.8183
mp-4891,HoAlO3,5.8318
mp-767130,Cr4OF6,1.2968000000000002
mp-565301,KFe2(PO4)2,1.9463
mp-542920,LaFeO3,1.5140000000000002
mp-675647,Hg(Mo3S4)2,0.0
mp-1096571,CuNiAu2,0.0
mp-1079778,Sr2ZnWO6,3.5287999999999995
mp-1036359,CaMg14SiO16,0.5720000000000001
mp-28487,Ge5(Te4As)2,0.2199
mvc-2919,VZnO2,0.0
mp-569458,AlV4C3,0.0
mp-779833,Hf2N2O,1.9989
mp-1087519,C2BrNO,2.9994
mp-1034329,NaMg14SbO16,1.2875999999999994
mp-30218,Ti2P,0.0
mp-779260,Gd3SbO7,2.5327
mp-22438,Ce(SiPt)2,0.0016999999999995907
mp-707209,CsH24Rh(SO10)2,2.8625
mp-556663,CsCrF4,2.6209
mp-771447,Na3Li3Fe2P2(CO7)2,3.7141
mp-9158,LiCuO2,0.37780000000000014
mp-763536,Li4MnSb2WO12,1.1039000000000003
mp-1029605,Na2MnN2,0.0
mp-13688,Ge2Mo,0.0
mp-977112,NaSrO3,0.0
mp-8462,Hf3Al2,0.017199999999999882
mp-654051,Nb6SI9,0.17799999999999996
mp-557954,GaN5O14,1.1872
mvc-12039,Fe5O7,1.1318
mp-30536,V5Sb4,0.0
mp-1095100,U2SnIr2,0.0
mp-1093986,Zr2TlTc,0.0
mp-776855,Li3CrH12(CO3)6,3.3544
mp-1095668,TaFeAs,0.0
mp-1094448,Mg2Zn,0.0
mp-560974,BeAl6O10,5.4595
mp-736665,Hg2H2C2NCl5,0.5335000000000001
mvc-5769,VZnAsO5,1.9746
mp-559407,NaGdH2S2O9,2.9139000000000004
mp-1092281,Ti2TlC,0.0
mp-568768,Yb2(CN2)3,0.0
mp-30823,Pu5Os3,0.0
mp-975156,RbWO3,0.0
mp-20985,TaPbS2,0.0
mp-771493,NaLi2MnPCO7,3.4761
mvc-12636,Mg(NiO2)2,0.0
mp-1096619,TiCr2Re,0.0
mp-763355,Li4V5(P3O11)2,2.3533
mp-762771,Li3Fe5(NiO6)2,0.2269999999999999
mp-1028115,CaMg14Nb,0.0
mp-555891,SiO2,5.3872
mvc-11286,Zn(NiS2)4,0.0
mp-1097278,Zr2TcNi,0.0
mp-763043,Fe2OF3,1.5519999999999998
mp-25713,KNiPO4,3.4087
mp-6533,NaLu(Pd3O4)2,0.0
mp-30810,Th2Ni17,0.01909999999999989
mp-18850,BaYMn2O5,0.018799999999999702
mp-866096,HfZnCo2,0.0
mp-19310,Na3Co(NO2)6,2.4684
mp-754933,SmTlO2,1.7153999999999998
mp-1069726,Pd(NCl)2,0.5309999999999999
mp-640158,Hf6Fe16Si7,0.0
mp-605824,Cs4CO4,1.7
mp-556941,NaFeF3,3.0099
mp-570759,Tb4Bi3,0.0
mp-1027162,CeMg14B,0.0
mp-568271,Si2Bi14RhI12,0.0
mp-12734,NdAl3Pd2,0.0
mp-677422,Ca2Ga2Si(HO4)2,3.5092
mp-772467,Li4Mn3Nb5O16,0.0
mp-767584,Ti4Ni(PO5)4,0.13070000000000004
mp-578619,NaNiO2,0.0
mp-690522,Mo2Cl4O,1.0866
mp-861891,SeBr2,0.8221
mp-566833,LiV(IO4)2,2.6322
mp-1027991,Mg14ZrFe,0.0
mp-21499,YbInPd,0.0
mp-1027889,Mg14FeNi,0.0
mp-975216,RbReO3,0.0
mp-1032986,Mg6AlBO8,0.0
mp-28212,Nb4O5,0.0
mp-21578,KCu4(AsO4)3,0.34529999999999994
mp-980537,RbYbO3,0.0
mp-3824,Ta9(NiS3)2,0.0
mvc-1338,CaCrP2O7,2.5122
mp-1025156,NpB6,0.0
mp-1096643,LiTl2Pd,0.0
mp-709030,Sb2H30C9(NCl3)3,3.1511
mp-1021683,NaMg6V,0.0
mp-851009,Li5Fe7O3F13,2.4014
mp-755446,Bi2(BO3)3,0.0
mp-980392,TmScHg2,0.0
mp-633538,B9C,0.0
mp-639826,C2SeN2,3.3360000000000003
mp-765734,Na2NiO2,2.0058
mp-865829,Lu2CuIr,0.0
mp-566472,Mn(RhO2)2,0.9154999999999998
mp-2103,CuAu3,0.2176
mp-1071765,USbS,0.0
mp-1095452,U3Fe2Ge7,0.0
mp-570226,Sm3CuGeSe7,1.1611999999999996
mp-762873,Fe3OF5,1.7313
mp-13195,NdSbO4,2.2255000000000003
mp-989557,YTcN3,0.0
mp-18126,Tb3CuSnSe7,1.0153
mp-761947,Na5(WO3)14,0.0
mp-767564,Na5LiFe6(SiO3)12,2.76
mp-27256,Sb2(S2O7)3,4.1996
mp-775125,Li8Fe3Sn(PO4)6,2.2165000000000004
mvc-5009,Mg2AgWO6,0.0
mp-774081,Li4Mn3Fe(BO3)4,3.041300000000001
mp-561373,CoO,0.7120000000000002
mp-1096854,Ca3As2,0.0
mvc-10236,Mg(NiO2)2,0.0
mp-31458,TiSbRu,0.0
mp-21581,Tb(FeSn)6,0.001999999999998892
mp-553952,Li(CoO2)2,0.0
mp-566934,K2Th(MoO4)3,3.6331
mp-22497,HoSiRu,0.0
mp-1096398,Zr2FeCo,0.0
mp-775442,Li4V3Ni3(SnO8)2,0.1318999999999999
mp-777711,LiFeBO3,3.1611
mp-767771,P3W2O13,2.1023
mp-631383,MnCrRe,0.0
mp-20780,Tb(MnSn)6,0.003099999999999881
mp-1092293,Bi2Pt,0.0
mp-1034004,KMg14CrO16,0.2734999999999994
mp-850164,Li4Co3Ni3(SnO8)2,0.0
mp-10056,UCo3B2,0.0
mp-568856,Mn3As2,0.0
mp-691119,Bi14MoO24,2.6056
mp-864936,MnGeRu2,0.0
mp-770150,TlCoO3,0.3943000000000003
mp-603912,Nd2MoC2,0.0
mp-19791,Ca(GeRu)2,0.003099999999999881
mp-8689,V4GeSe8,0.0
mp-867284,Ho2CuRh,0.0
mp-14288,Sr3P4,0.8855000000000004
mp-1548,PrMg,0.0
mp-17878,BaHo2CuO5,0.2812000000000001
mp-1075521,Mg5Si6,0.0
mp-1021412,Mg6SiSn,0.0
mp-1076932,BaTiO3,0.0
mp-752701,LiCuF3,0.03510000000000002
mvc-10836,Sr2YSb2O7,0.0
mp-765899,LiCoO2,0.8952
mp-1094298,SrMg,0.0
mp-28510,Li3BiO3,2.4379
mp-774941,Li(NiO2)2,0.7825000000000002
mp-4727,Ba(SbSe2)2,0.9964999999999996
mp-614777,NiF3,1.2989000000000002
mp-25018,Ca2MnGaO5,0.030899999999999924
mp-781693,Mn6O11F,0.0
mp-1022099,Mg6CuW,0.0
mp-1097766,CrN2,0.0
mp-540713,Ca2Al2FeSi4BHO16,4.0641
mp-774749,RbNa3Li12Ti4O16,4.3103
mvc-8410,Ge2WO6,2.2431
mp-769889,TaFeO4,2.4105
mp-1021521,LiCeMg6,0.0
mp-863010,K2TeH6SeO10,3.4008
mp-1037821,Mg30MnNbO32,0.6293000000000006
mp-505312,Sr2FeCuSO3,0.9654999999999996
mp-569826,K2Ge2Se5,1.8025
mp-17760,ErGe2Pt,0.009000000000000341
mp-639719,Cu3Mo2O9,0.0
mp-9343,ErAgGe,0.0
mp-761311,Li4MnSi2O7,3.653
mp-540575,ZnHg2H14C4N6O13,3.4328000000000003
mp-561113,Ag2BiO3,0.5019999999999998
mp-865237,Tm2ZnIr,0.0
mp-9741,Na3Cd2IrO6,0.0
mp-1056804,Cs,0.0
mp-13196,SmSbO4,2.2709999999999995
mp-553927,Pu(IO3)4,0.09099999999999976
mp-770245,LiCrNiO4,0.0
mp-1026647,Mg14CdC,0.0
mp-5702,Cu3SbS4,0.0
mp-557058,ZnS,0.0
mp-771414,Li4NbCo3O8,0.1905000000000001
mp-780857,Li2VOF4,1.6283
mvc-1473,YFe3Se2ClO8,2.5517
mp-2958,Dy(BC)2,0.0
mp-625208,H8PtO6,1.9380000000000002
mp-1095536,VNiGe,0.0
mp-20963,Tb3PbC,0.0
mp-38357,Ba4Bi3F17,4.9991
mp-973374,LiMg2,0.0
mp-554389,Ta3(BiS3)2,0.0
mp-569017,PdI2,0.8733000000000002
mvc-16539,CaLaMnFeO6,1.3633000000000006
mp-770674,Li9V12Fe7O48,0.0
mp-1100516,Li9Mn7O16,0.0
mvc-12115,CaMn4(CuO4)3,0.0
mp-2081,TlTe,0.0
mp-505403,K2WO8,2.927
mp-698582,Li5Mn7O16,0.7895999999999996
mp-753304,Hg,0.1949
mp-1097095,SrLi2Ge,0.133
mp-18996,TlV3O8,2.003
mp-1033983,RbHfMg14O15,0.0
mp-1097541,Mg2HgPd,0.5148000000000001
mp-1096976,GaAgO2,0.3058000000000001
mp-699343,Li4MoO5,2.8721
mp-551283,Na2Cu2TeO6,0.722
mp-560545,Na2Ca(AsO3)4,2.6021
mp-1025557,CoMoP2,0.0
mp-1094520,Mg3Sb,0.0
mp-561972,SrMn2(PO4)2,3.3013000000000003
mp-775156,LiMnSiO4,1.2672
mp-554528,TiMn2O4,1.3879999999999997
mp-1027981,Mg14ZnFe,0.0
mp-773785,K2TeO4,2.63
mp-23487,KIO3,2.9376999999999995
mvc-5822,Ca2IrWO6,1.2130999999999998
mp-768974,BaY3Cl11,4.2205
mvc-812,Sr2AlCoCu2O7,0.009199999999999877
mvc-8078,Mg3Fe4(MoO4)6,1.1707
mp-1094465,Mg2Zn,0.0
mp-28670,Ba2Bi2O5,2.0078
mp-554190,CaZr4O9,3.8366
mp-973352,NaCo3,0.0
mp-579015,K3Mo12PO40,2.2502
mp-572902,Cs2CeAsS3Cl2,0.1059000000000001
mp-19588,Sc2(WO4)3,4.126
mp-1096124,Li2CdIn,0.034400000000000215
mp-685675,Li26(B24O)3,0.0
mp-28256,V2Se9,0.7130000000000001
mp-1096196,Nb2CrOs,0.02590000000000004
mp-569238,Cs3LiI4,3.8043
mp-1032930,CaMg6FeO8,2.0330999999999992
mp-6880,Sb2OsC6(OF2)6,4.6347000000000005
mp-761505,Li6V3P8O29,1.2712
mp-11556,PuRu2,0.0
mvc-16508,Ca2CoSi2O7,3.0560000000000005
mp-767794,LiVSiO4,1.5717999999999996
mp-753089,LiCu2F6,0.0
mp-771247,CoTeO4,0.7254
mp-30723,Th2Hg,0.0
mvc-2612,MnZnO2,0.0389999999999997
mvc-14430,Y8Cu3(SiS7)3,0.0
mp-773691,LiFe(SiO3)2,2.6008000000000004
mp-19183,Li2NiO2,2.9545000000000003
mp-630866,Fe3Pb4ClO8,1.0374
mp-11152,SiSbPt,0.2099000000000002
mp-28860,P2Se5,1.3347
mp-510757,Fe(Se2O5)2,0.021600000000000064
mp-32868,Ag2S,0.6576
mp-672351,Sm6Br13,0.0
mp-9884,KFeSe2,0.0
mp-1031676,SrMg6VO8,1.0968
mp-770879,Fe5Co(PO4)6,1.4463
mp-565796,Y2WO6,3.6851
mp-1087219,GePt3,0.0
mp-773387,Li4Fe5Co3O16,0.0
mp-1017553,CdCo3N,0.0
mp-581736,Eu(SiRu)2,0.0
mp-762492,Li2Fe(PO3)4,4.0099
mp-1029233,Te4MoW3(SeS)2,0.0
mp-1067937,Ho2BiO2,0.0
mp-23098,ReNClF5,1.7905000000000002
mp-7364,Ca(SiAu)2,0.0
mp-625509,H3BrO,4.4183
mp-22166,Co3Mo3N,0.0
mp-676937,Ta8Pb6O25,0.3283000000000005
mp-1888,RbGe,1.015
mp-752826,Al2O3,4.0173000000000005
mvc-6196,Ca2YCoO5,0.6059999999999999
mp-1007821,GaCo2Ni,0.0
mp-1009488,NiN,0.0
mp-1097248,Y2MgTl,0.10429999999999984
mvc-152,Ca(MoO2)4,0.15300000000000047
mp-1057125,KS,0.0
mp-865100,NaInHg2,0.0
mp-684502,Sn2P3O10,0.3405999999999998
mp-850959,Li5Mn6(BO3)6,0.1641999999999999
mp-542028,Ti3Al2NiN,0.0
mp-1096705,CaZnAu2,1.0267
mp-559670,KBaYSi2O7,4.6816
mp-1069147,PrFeGe3,0.0
mvc-659,Ba2YAg3O8,0.0
mp-21560,CuAs2PbO7,0.6398000000000001
mp-639436,K5V3F14,1.0619999999999998
mp-12537,Ti2GaC,0.0
mvc-4396,TaZn2FeO6,2.217
mp-867202,Sr,0.0
mp-735488,RbNa3Mo2H18O17,4.5822
mp-567942,Cs2ReCl6,1.2397
mp-1097393,Mg2CdRh,0.15739999999999998
mp-532704,K2YHf(PO4)3,4.7808
mp-769527,Li2MgCo13O28,0.9514
mp-1078738,Er2InCu2,0.0
mp-976447,NaCrH8(NF3)2,3.9976
mp-862619,LiErIn2,0.0
mp-1017359,Mg6SiMo,0.0
mp-19905,Co2Si,0.013500000000000513
mp-1064892,Zr2TiAl,0.0
mp-570082,CdI2,2.3629
mp-647969,CoAg(CO)4,2.5384
mp-767301,Li3Co2(SiO4)2,0.6373
mp-19991,SrIn4Pd,0.0
mp-782687,Li3Co5OF11,2.4204
mp-31113,Dy3GaO6,3.5851999999999995
mp-567077,SmB2Rh2C,0.0
mp-1080591,CaFeAsF,0.0
mp-761,CeCu5,0.0
mp-1079439,Fe(ClO2)3,0.0
mp-766848,LiMn2F9,2.2518
mp-1076776,SrCa3TiMn3O10,0.0
mp-1022507,KMg6Fe,0.0
mp-605935,K5Eu2Si4O13F,0.0
mp-1073795,MgSi,0.0
mp-863747,K4P2PdS8,1.7116
mp-619571,ScU8S17,0.0
mp-990764,V3Se4,0.0
mp-865108,NaSmHg2,0.0
mvc-5037,Zn2CuWO6,0.3713000000000002
mp-8761,NdCoC2,0.0
mvc-2867,Mg4Ti5(TeO6)3,0.11080000000000023
mp-1639,BN,4.4506
mp-565860,TlVH6SO9,2.7835
mp-849987,FeH10N2Cl5O,2.1988
mp-676855,In(HO)3,1.9486
mp-778915,Ca5W3O14,2.3675
mp-1014332,C3N,0.0
mp-680932,OsPbO3,0.0
mp-680095,CdI2,2.3417
mp-6574,Er2C(NO)2,4.0097000000000005
mp-555808,Zn8B3H3O14,2.4989
mp-1013917,LiMn3P3O13,0.0
mp-1026464,HfMg14Mo,0.0
mp-569931,Pr(NiP)2,0.0
mp-1029776,Li2GeN2,2.6889000000000003
mp-865251,TmThTc2,0.0
mp-20092,EuTa2O6,0.2385999999999999
mp-540032,Li4Mn5(P3O11)2,3.1011999999999995
mp-1008820,PdN2,0.0
mp-1076470,Sr2Ca6Co7CuO20,0.0
mp-15385,Na2UP2O9,2.1752
mp-2979,ZnGeN2,1.6965
mp-27792,K2S5O16,4.5508
mp-568812,CdH16C4(NCl2)2,3.3967
mp-1098730,Mg30MnFeO32,0.0
mp-4529,K2SO4,5.4017
mp-866174,ThSnAu2,0.0
mp-30879,Tb5Tl3,0.0
mp-1409,TiNi3,0.0
mp-561430,LiLuF4,7.9011999999999984
mp-20233,CaMnSn,0.018299999999999983
mp-764308,Li4Fe3Co3(NiO8)2,0.0
mp-1018026,LiAg,0.0
mp-1026604,CsMg14Cr,0.0
mp-779799,Li24Mn5Cr7O36,0.883
mp-27366,KNiCl3,0.9213
mp-5808,RbNdTe2,1.3178999999999998
mp-691091,Na2Al2Si3(HO3)4,2.8883
mvc-594,YV(WO4)2,1.2892000000000006
mvc-4223,Ti2Zn3(GeO4)3,0.0
mp-1098562,Mg30NbBiO32,0.0
mp-1023400,Mg6TiAl,0.0
mp-1094599,LiMg5,0.0
mp-1039905,SrMg30SiO32,1.2016999999999998
mp-571502,Ga(BiBr)4,1.5866
mp-1039186,MgCd,0.0
mp-780518,Li5(NiO2)4,0.0
mvc-12822,CaV2(BiO5)2,0.6345000000000001
mp-1073358,MgSi2,0.0
mp-752713,HoBO3,5.4365
mp-1100561,Li9Mn2Co5O16,0.0
mp-1038972,MgCd,0.0
mp-540276,LiVPO5,1.7582
mp-19109,FePO4,2.7024
mp-984743,Er2Ge5Rh3,0.0
mp-1018758,LaZnIn,0.0
mp-1013760,Sn5(S2Cl)2,1.2428
mp-17254,TlGaSe2,1.8034
mp-764630,Cr3(CuO6)2,0.11769999999999993
mp-979713,YHgPd2,0.0
mvc-8820,CaSi4WO10,2.1854000000000005
mp-979274,UAg3,0.0
mp-706225,Sr3LaMn2(WO6)2,1.5598999999999998
mp-916,DyPt2,0.0
mp-1355,Y6Mn23,0.008799999999999919
mp-862982,Ag2Br3,0.0
mp-769828,LiCoBO3,2.6173
mp-777448,Li2VF4,2.6698000000000004
mp-865521,LuI3,2.1804
mp-1071478,CeInPt4,0.0
mp-13799,K2NaYF6,6.3303
mp-715515,Cr3O8,0.4139999999999999
mp-600193,Cs2PtC2(OF)4,2.4733
mp-558583,AsS6N5F6,1.7912
mp-542164,CsTb2Ag3Se5,1.0943999999999998
mp-776189,LiFeF3,3.3132
mp-541695,W(CO)6,2.9753
mp-771773,Na2BiBPO7,0.029200000000000007
mp-20820,Pb(NO3)2,3.5995
mp-1019322,Te2W,0.9395999999999995
mp-29535,CeSiI,0.0
mp-542877,Mn2O3,0.012900000000000134
mp-934092,VAsRh,0.0
mp-773628,NaV2O4,0.0
mp-850246,Li3Mn4(P2O7)4,0.05459999999999998
mp-1033258,Mg6GaBO8,0.0
mp-781111,Li8Mn7Nb(PO4)12,0.1838
mp-556085,Rb2LiTaS4,2.7182
mp-780632,Li10Fe2Co3Ni3O16,0.0