mpid,formula,gap pbe
mp-675310,Na3(VSe2)5,0.12400000000000012
mp-23356,Bi4B2O9,2.8354
mvc-4910,CaCu(SiO3)2,0.0
mp-634755,CSO,4.4961
mp-554089,SiO2,5.660399999999999
mp-1069520,Zr2CuH2,0.0
mp-30985,Tb6Br7,0.0
mp-768013,Li5Fe(Ni2O5)2,0.0
mp-1484,Pr4Sb3,0.0
mp-19056,HoMnO3,0.0
mp-14435,K3GeSe3,1.8142
mvc-4870,Mg3Co2(Si2O7)2,1.3757
mp-979263,ThMg3,0.0
mp-42255,NaCaNb2O6F,2.7833
mp-32013,Na5MnO4,1.4351999999999998
mp-27303,NaAg3O2,0.6596
mp-867714,Li2Fe(PS3)2,0.0
mp-849513,Fe2Sb(PO4)3,2.229
mp-540803,Sr3(LiSb)4,0.0
mp-629339,SrV3O7,2.4133
mp-685036,Al2O3,3.2993999999999994
mp-20675,HoSiRh,0.06230000000000047
mp-504536,Cu4SnS4,0.0014000000000002901
mp-1025424,TmMnSi2,0.0
mp-11142,SrCu9Si4,0.0
mp-1038987,CaMg5,0.0
mp-1018714,HfGaCu,0.0
mp-4602,Tb2Ti2O7,2.7256
mp-6023,Tl2Sn(AsS3)2,0.9788999999999994
mp-753175,SrH2(SeO3)2,4.1695
mp-17682,Zr2Fe,0.0
mvc-10066,CaTi4O9,2.6104000000000003
mp-1077418,USbPd,0.0
mp-654165,Tl4Mo(CN)8,2.1969
mp-849417,Co2OF3,0.4543
mp-763463,LiP4WO12,4.170400000000001
mp-765140,VF5,2.776
mp-631520,TlBTe2,0.0
mp-652312,BaCrF6,0.0
mp-764398,VOF3,3.0291
mp-974336,HoO,0.0
mp-10051,TeAs,0.0
mp-22332,TaInS2,0.0
mp-560449,K3Ni2F7,4.6238
mp-867130,SmHoMg2,0.0
mp-554573,SiO2,5.6155
mp-680640,Ca11N8,0.0
mp-767277,FePHO5,0.0
mp-961685,NaCaAs,1.5819
mp-777082,TiNi3Sn2(PO4)6,2.0099
mp-23909,H6CN3ClO,5.2019
mp-540263,VPO5,1.4709000000000003
mp-762792,LiVF5,2.2276
mp-37747,LiHS,3.4957000000000003
mp-29843,Bi2Se2Cl7,1.3983000000000003
mp-631342,MnTcPd,0.0
mvc-4967,MgSi2SnO6,3.3193999999999995
mp-21070,Nd(GePt)2,0.0
mp-774023,Na2Ti3Fe(PO4)6,0.0
mp-570494,PrCd,0.0
mp-669318,Eu5Si(Cl3O2)2,0.7065999999999999
mp-12065,Ag3Pt,0.0
mp-773577,Li8Fe2O9,0.0
mp-14142,TiZnO3,3.0906
mp-28671,ZrTe2Br5,1.1092
mp-1065918,Mn2CuGe,0.0
mp-10763,KHgSb,9.999999999976694e-05
mp-851260,Fe3O5F,0.0
mp-27625,Ge19(PBr)4,1.4055
mp-30461,BiPd2Pb,0.008899999999999686
mp-780485,LiVP2HO8,1.3803
mp-780131,Li7MnNi3(PO4)6,0.0
mvc-9438,Ti2ZnO4,0.0
mp-767677,Na4(WO3)9,0.0
mp-677467,Rb5Te3H4NCl18,2.6114
mp-1038237,Mg30TiAlO32,0.3437000000000001
mp-1095841,Sr2MgHg,0.4550000000000001
mp-774802,NbCu(PO4)2,0.3009999999999997
mp-1096877,Ca3Co4O9,0.6784000000000001
mp-1064715,NaN3,0.0
mp-776688,V2O3,1.2369000000000003
mp-865859,LaYbCd2,0.0
mvc-321,MgTi4O6,0.0
mp-981384,ScOs3,0.0
mp-1017542,ZrOs3,0.0
mp-1036522,SrMg14AlO16,0.14170000000000016
mvc-7958,Mg2Ni3O8,0.24680000000000035
mp-1028152,CsMg14Mn,0.0
mp-753515,Sb3O4F,2.3882000000000003
mp-1096996,H6CNF,5.7311
mp-769616,Na2CrPCO7,2.8714
mp-6794,LaB2Rh2C,0.0
mp-10038,Er3AlC,0.0
mp-989551,LiTl2InF6,4.0172
mp-774691,Ba6Na2P2Ru2O17,0.34529999999999994
mp-626621,V6H4O13,0.6696
mp-1019522,Ba2B10O17,5.6719
mp-554676,H3CS,3.7158
mp-14340,Rb2Pd3Se4,0.9187
mp-556503,LiH3CO3,5.2442
mp-9842,RbSm(CO3)2,4.1306
mp-773755,Na3Li3Mn2P2(CO7)2,3.5651
mp-771423,Li3FeBAsO7,2.1952
mp-1073656,MgSi2,0.0
mp-25064,RbMoP2O7,3.9351
mp-984052,Ba(LuS2)2,1.7477000000000005
mp-1099886,Ba3SrCo(CuO4)3,0.0
mp-11816,BaCdGe,0.0
mp-756876,K3BaPCO7,3.9056
mp-1096912,CrN2,0.0
mp-976707,H4CN2O,4.8066
mp-777694,Li4Ti3V5O16,1.0774999999999997
mvc-9194,ZnNi3O7,0.0
mp-769923,TiCrO3,0.4272999999999998
mvc-6425,MgV2CuO7,0.3174999999999999
mp-1070321,NdSi3Rh,0.0
mp-558154,Ag3PO4,0.0
mp-17031,KAlP2O7,5.2967
mp-14550,TiCdO3,2.1261
mp-1021319,Mg6TiB,0.0
mp-1028307,Mg14VB,0.0
mp-776624,LiVF4,2.3709
mp-17699,Er2Cu(B2O5)2,0.7087999999999997
mp-30267,CeGa4Os,0.0
mp-1778,BeO,6.8508
mp-779487,Ti17(NO4)6,0.14260000000000073
mvc-16083,Al(MoS2)4,0.11579999999999925
mp-850493,P4WO12,2.9507
mp-569882,U6Co30Si19,0.0
mp-690125,V5Fe3O16,0.8124000000000002
mp-1016850,BaRhO3,0.0
mp-1078992,Th3Pt5,0.0
mp-20480,Er(Fe2Ge)2,0.004100000000000215
mp-16334,Fe3PdN,0.0
mp-1097257,ZnCdAg2,0.0014999999999996128
mp-777080,VOF3,1.8397
mvc-6056,Zn(AgO2)2,0.0
mp-652036,GdFe5P3,0.0
mp-760014,LiSbF4,3.6756
mp-19500,BaCr10O15,0.0
mp-31266,YPS4,2.1327
mp-551830,SrTiO3,1.7783000000000002
mp-647903,Ba2LuSbO6,0.0
mp-782712,Li3V4(OF3)3,1.0761
mp-23538,KFeCl3,0.14979999999999993
mp-29995,La3SiBr3,0.0
mp-672709,Fe(CuS)2,0.0
mp-978968,Ti3O2,0.0
mp-861984,Er2IrPd,0.0
mp-705785,VZn2O4,1.6010999999999995
mp-6331,Na2Y2B2O7,4.3727
mp-28701,CsSbS6,1.7828
mp-16783,Cd2Re2O7,0.0
mp-568090,LaBC,0.0
mp-570132,Mg8B5IN10,2.6847
mp-1095948,Cs2KNa,0.12740000000000018
mp-1020628,SrGe(PO4)2,4.0919
mp-1029074,Te4MoW3(SeS)2,0.0
mp-1073483,MgSi2,0.0
mp-567214,NdSnRh,0.0
mp-22447,Zr3P,0.0049999999999998926
mp-542154,Mo3Pd2N,0.0
mp-755459,Rb2O,0.3077
mp-1584,YbIr2,0.0
mp-866226,CaTmPt2,0.0
mp-7143,BaPuO3,0.0
mp-565644,Cs2Cr(NO3)5,2.7168
mp-773427,Li4Mn3CuO8,0.0
mp-707238,KPH2O3,3.9123
mp-557794,Yb3SiO,0.0
mp-540692,Ba3SmIr2O9,0.0
mp-1094088,NbCoSn,1.0008999999999997
mp-510462,CsDyZnTe3,1.7130999999999998
mp-767309,LiMn2OF3,1.9013
mp-850341,Fe4O3F5,1.5869
mp-34361,Tl9BiTe6,0.6109
mp-680655,Zr7Ni10,0.0
mp-1069296,Eu3InO,0.0
mp-763858,Ta2MnO6,1.9697
mp-546500,NaCNO,4.4908
mvc-15320,Ca2VN2,0.0
mp-27350,U(BH4)4,0.0
mp-667426,Bi2Te2O7,2.5594
mp-776786,VOF,1.4477000000000002
mp-861873,TaTlO3,0.6811000000000007
mp-1077663,SrCa7TiMn7O24,0.0
mp-504966,Ba2Y2CuPtO8,0.2594000000000003
mp-29815,LaAs2,0.5974000000000004
mp-1070860,EuHCl,0.30799999999999983
mp-1095111,Pr(CuSn)2,0.0
mp-863916,Ta2Co4O9,2.0519
mp-30940,Cd2Te2O7,1.7272999999999996
mp-982725,Nb2RuW,0.0
mp-11026,Rb3Hg20,0.0
mp-32580,Ga2Te3,0.0
mp-675208,Co(Mo3Se4)4,0.0
mvc-5923,Mg2AgWO6,0.044299999999999784
mp-557031,S,2.0442
mp-762639,LiFeSiO4,3.0258
mp-560534,Ba3Er2(PS4)4,2.3777000000000004
mp-28483,WBr6,1.0698
mp-21061,GdSbPd,0.002000000000000668
mp-543100,LiCoSiO4,1.4241
mp-4895,UTeAs,0.0
mp-1094206,MgSn2,0.0
mp-14889,K9Fe2S7,0.5906
mp-759534,LiBi2(SO4)3,0.5619000000000001
mp-1038705,SrMg30NbO32,0.5270999999999999
mp-861541,Li2MnSn(PO4)2,3.0587000000000004
mp-558362,CaMgGeO4,3.6234
mp-853186,Li35(FeO4)8,0.1133
mp-777974,Li3Fe8(BO3)8,1.6527
mp-23222,Li3Bi,0.34289999999999976
mp-864994,DyHg3,0.0
mp-1078542,GdZnAsO,0.6312000000000002
mp-558712,Ag2BiO3,0.0
mp-421,DyNi2,0.0
mp-30363,BaAu2,0.026600000000000186
mp-850771,Li8Mn7Fe(BO3)8,2.901
mp-1078590,NaCO2,0.06689999999999996
mp-767085,P3W2O13,1.8082
mp-760701,LiNbO3,3.4191000000000003
mvc-6189,Mg3Sn3(AsO4)4,2.7066
mp-676489,Ce(Mo3S4)2,0.20500000000000007
mp-510486,Ta3Al2CoC,0.0
mp-15958,Nb3VS6,0.0
mp-29195,LiPO3,5.5612
mp-767477,Ta2MnO6,2.0255
mvc-5965,WO2,2.4805
mp-706469,Mn3(P2O7)2,0.0
mp-29213,Cd2Ge7O16,2.1004
mp-5723,ZrAlNi,0.0
mp-32043,LiMo(PO3)4,4.436
mp-567891,NdAg2,0.0
mp-20462,U3Co4Ge7,0.006799999999999251
mvc-3793,Ca2Ti2O5,0.0
mp-777524,Li32Ti3Cr13O48,0.9362
mp-5175,NaInO2,1.9142
mp-642316,CuBi5PbS9,0.5931999999999995
mp-19408,LiV2O5,1.1530999999999998
mvc-1387,MgP2WO7,1.6418
mp-779975,Hf2N2O,2.0039
mp-568135,Cs4Sc6CCl13,0.0
mp-864839,Zn2PdRh,0.0
mp-685952,Al2Hg5Se8,0.23550000000000004
mp-1096873,Ca2Mn2O5,0.0
mvc-8411,Cu3(NiO3)4,0.0
mp-1078956,PtN4Cl2O,0.0
mp-780879,LiMn3P3(HO6)2,3.4415
mp-555524,Na4MgC6(SN)6,4.1635
mp-862709,CeAg3,0.0
mp-1099338,CsNaMg6,0.0
mp-1098047,CeMg6B,0.0
mp-8062,SiC,1.3704
mp-554138,Pr2SbO5F,3.5080000000000005
mp-626703,CrHO2,2.4372000000000003
mp-1096659,ZrSc2Tl,0.0
mp-1096680,LiCaHg2,0.0
mp-984549,PmDyRh2,0.0
mp-770486,Li3Ni2SnO6,0.0
mp-723145,K2P2H2O7,3.0413
mp-690571,In2(HgTe2)3,0.0
mp-1030201,Te2MoWSeS,0.0
mp-762782,Li3VF5,2.3684000000000003
mvc-14147,CaCr2(Si2O5)4,1.4225000000000003
mp-567366,CsCuCl3,0.0
mp-540459,LiCr4(PO4)3,2.6128
mp-1094090,Ni4N,0.0
mp-770662,CdCoO3,0.0
mp-546350,TmBi2BrO4,1.3546
mp-565283,Sr2MnP3O11,1.1032000000000002
mp-1084828,La3Al,0.0
mp-9799,Yb4As2O,0.9593000000000004
mp-559875,K3Na2LiTeO6,2.2126
mp-20907,La2InRh2,0.0
mp-11213,BaAgSb,0.0
mvc-11568,Ca2Mn2O5,0.6393
mp-1097322,Li2GePt,0.1856
mp-773512,Tm2WO6,3.7669
mp-22337,Hf5Ga3,0.0
mp-763529,Li3P2WO9,3.3444000000000003
mp-764574,Mn6O7F5,0.0
mp-977365,YbEuIn2,0.0
mp-1096141,Sr2LiGa,0.0
mp-23733,Cu3H2(CO4)2,0.385
mvc-7571,MgFe2CoO7,0.0
mp-27202,B9H8S,4.1560000000000015
mp-1069055,Cu(BrN)2,0.22699999999999998
mp-29273,Ca2Ge7O16,2.8625000000000003
mp-23859,CaHCl,3.8367999999999993
mp-27637,NiBr2,0.0
mp-10952,Cu2HgGeS4,0.0041999999999999815
mp-1097077,In2HgPb,0.0
mp-1040035,LiMg30SbO32,3.0433999999999988
mp-567163,K2UMo(IO6)2,2.1943
mp-769466,Y2Ge2O7,3.8961
mp-623038,Nb5As3,0.0
mp-778899,LiCrPO5,0.40800000000000014
mp-1040036,LiHfMg30O31,0.10309999999999953
mp-764923,VF4,2.7285
mp-28859,K2HgS2,2.1246
mp-641545,CsCr3O8,1.8862
mp-766091,Li4La5Ti6Nb2O26,0.0
mp-1040270,KMg30SiO32,0.4263000000000012
mp-27382,UTlF5,0.2090999999999994
mp-770336,Li4Cr3GaO8,3.1699
mvc-8980,Mn2Zn(PO5)2,0.0
mp-510661,Gd(IO3)3,3.0043000000000006
mp-1019087,CaSnHg,0.0
mp-768788,Li3Bi(BO3)2,3.9539
mp-9804,KHo(CO3)2,4.2582
mp-23963,HIO3,3.213
mp-29751,CsMgI3,3.3159
mp-16490,Lu2Al3Co,0.010200000000000207
mp-1093763,YTlRh2,0.11419999999999984
mp-557009,ZnS,2.0314
mp-571065,TiBr3,0.0
mp-562420,Cs3ClO,1.8351
mp-3034,MgAl2Cu,0.0
mp-7562,TaTl3S4,2.5325
mp-541897,Rb2Cd(PSe3)2,1.9896
mp-862931,ErSnRh2,0.0
mp-650178,Se5SO3F,1.3992
mp-676501,K3Sn2S3BrO12,3.4126000000000003
mp-557870,LaF3,4.9708
mp-997085,SrAgO2,0.0
mvc-7568,Mg2Ti3O8,2.6527
mp-645796,TlFe(MoO4)2,2.5956
mp-39025,NbO2F,1.7322000000000002
mp-684810,BaSm5Al3Si9N20O,2.766
mp-985304,Cr(GaS2)2,0.0
mp-850982,LiCo3(OF3)2,0.0
mp-541938,Nb6Co16Si7,0.0
mp-25588,SmNiO3,0.0400999999999998
mp-864993,DyB4Mo,0.2845000000000004
mp-505562,CrCuO2,1.5637000000000003
mp-1866,KO2,0.0
mp-1099742,Ba2Sr6Co3(CuO4)5,0.0
mp-35785,Y2CdS4,1.1109000000000002
mp-1078574,HfNi2Sb,0.0
mp-1096795,YAgS2,1.7035999999999998
mp-756968,K3CaPCO7,4.313
mp-768876,Na2Bi2C4SO16,0.0
mp-29896,Y2B3C2,0.0
mp-1094747,Mg2Cd,0.0
mp-997008,TlAuO2,0.0
mp-566823,KNiAsO4,2.7959
mp-23146,TlZnSClO4,4.357100000000001
mp-2327,TiZn16,0.0
mp-769266,Ca3Ta2O8,4.1056
mp-1031004,RbLaMg6O8,0.7397999999999998
mp-26823,Li2Cu3(P2O7)2,0.18840000000000007
mp-558407,In2Si(AgS3)2,0.9846999999999996
mp-21621,Y6Te2Rh,0.007899999999999352
mp-18506,SmZrF7,6.0508000000000015
mvc-9063,LaZnFeMoO6,1.7031999999999998
mp-5538,YSnPd2,0.02679999999999972
mp-1028271,Mg14VSb,0.0
mp-559961,Tl2SeO4,3.3122
mp-1077029,SmAsSe,0.0
mp-4212,Nb3Co4B7,0.0
mp-582736,Eu(MgSb)2,0.0
mvc-10063,Zn(NiO2)2,0.0
mp-720721,SiH18C4N8(O2F3)2,5.474
mp-1062206,NdCd2,0.0
mp-645435,Cu3Sn4PbO12,0.6745999999999999
mp-566004,La2Ni2O5,2.0234999999999994
mp-10368,CoPSe,0.7362000000000002
mp-974392,HoB4Ru,0.0
mp-1000769,MnB2,0.0
mp-30039,Na2Al2Sb3,0.8815
mp-973443,Hf2ReTc,0.0
mp-541194,Fe(SbO3)2,0.5337000000000005
mp-1018666,CeSi2Mo2C,0.0
mp-1078186,KZn2BCl2O3,3.8404
mp-553954,B4COF6,4.9696
mvc-12645,CaV2O4,1.5384000000000002
mp-677709,Na3Sr7Ti7Nb3O30,1.7047000000000003
mp-19462,KP2WO8,3.5098
mp-768121,NaSbPCO7,0.0
mp-570404,Ho4CdCo,0.0
mp-774171,Li3Mn2(SiO4)2,0.0
mp-866158,YLuMg2,0.0
mp-1580,NbN,0.0
mp-614572,Ca3InP3,0.9885000000000002
mp-19460,Ba5Nd8Mn4O21,1.9615
mp-29582,Li2CrCl4,0.5693999999999999
mp-7359,BaAgAs,0.0
mp-976411,Li,0.0
mp-769445,Li11Fe12(BO3)12,0.7972999999999999
mp-1073678,MgSi2,0.0
mp-1094274,SrMg,0.0
mp-767215,LiMn(PO4)2,0.1032
mp-773741,Fe4O3F5,1.5662
mp-705373,Li6Co3P8O29,0.0
mp-20053,CrTe,0.0
mp-569748,ThFe2SiC,0.0
mp-770506,V5BO9,1.4442
mp-972895,ScAu3,0.0
mp-776690,Mn3(O2F)2,0.0
mp-777732,Li8Mn13Cr3O32,0.10939999999999994
mp-685608,K2UF6,0.3449999999999997
mp-1097459,Rb2AuBr,3.2011000000000003
mp-755277,Tb3SbO7,2.7565000000000004
mp-850254,Li11V6O5F19,0.8712
mp-769046,Si2Sn2O7,2.5534
mp-975650,Pr2ZnHg,0.0
mp-2579,HoPt2,0.0
mp-22598,In2O3,0.9324000000000005
mp-546182,BaEu2CoO5,0.0
mp-1098351,Mg30TiSiO32,0.1181000000000001
mp-9694,Tm3(GePd)4,0.0
mp-1094712,SrMg,0.0
mp-25526,FeP2O7,0.06030000000000003
mp-557025,K2SeO4,3.6435
mp-585246,LiCoP2O7,0.6818
mp-581229,Gd2Ge2O7,2.7787
mp-18817,NiSeO4,2.5073
mp-775932,Ba2YI7,2.4651
mp-971673,BiS2,1.0690999999999995
mp-973933,NiN,0.0
mp-18981,Sr2CaWO6,3.2261999999999995
mp-579163,LaMo2O5,0.9774000000000004
mp-753717,Cu4OF6,0.0
mp-559209,NaCuAsO4,0.0
mp-1096337,Ti2MoRh,0.18109999999999984
mp-600449,DyCuSb2,0.0
mp-1097128,Y2CdPb,0.15280000000000005
mp-22996,SbSeI,1.3775999999999995
mp-715448,CoO,1.1707999999999998
mp-1097309,Ba2InHg,0.0
mp-643749,KCaF3,6.5984
mp-1879,SmS,0.0
mp-1080043,K,0.0
mp-755040,Cu2O3,0.0
mp-1068217,Tb2Ni2Sn,0.0
mp-9782,KAg3Se2,0.006599999999999939
mp-764484,LiMnV(P2O7)2,1.3442000000000005
mp-1027348,TeMoWSe2S,0.10840000000000004
mp-865026,Mn2VSi,0.0
mp-971661,Si,1.3309000000000006
mvc-8976,ZnSn3O7,0.5728
mvc-3613,Mg3Fe2O7,0.0
mp-567379,Bi,0.0
mp-7093,HoAgGe,0.0
mp-632758,CaP(H2O3)2,0.049199999999999966
mp-20967,GdBPd3,0.023800000000000487
mp-20366,Sm3Ga,0.0
mvc-9234,PrMg(AgO3)2,0.0
mp-1038906,Mg2Bi,0.0
mvc-9397,BiO2,0.6223
mp-568517,TlInSe2,0.0
mp-29808,Ca4GeN4,1.5929999999999995
mp-768409,TbTiO3,0.0
mp-764793,Li2Mn4OF8,2.1718
mp-567628,Rb2LiDyBr6,4.1868
mp-776979,Li9(CoO4)2,0.6781999999999999
mp-1038615,BaHfMg30O32,0.2774000000000001
mp-770927,Sm3TaO7,3.4923999999999995
mvc-4450,Al(CuO2)2,0.0
mp-707784,AlH18(NO6)3,3.3950000000000005
mp-680317,Cs2Bi8Se13,0.9106
mp-573727,Bi8SbAuBr9,1.1646
mp-1095846,Ba2NaPb,0.1376999999999997
mp-685906,Li7(Ga3Te5)8,0.0
mp-721017,Na2Te(H5O4)2,4.5416
mp-559653,SrCa(CO3)2,4.7734000000000005
mp-849601,Mn3(O2F)2,0.0
mp-4667,ZrSnRh,0.0
mvc-15395,Zn2CrN2,0.0
mp-1038596,HfMg30CrO32,0.00849999999999973
mp-15125,Rb2CdSi5O12,3.8268
mp-762798,Li4Fe5(NiO6)2,0.7066000000000003
mp-1072085,CeSi5,0.0
mp-566443,Sn5(W4O11)2,1.7203
mp-1094040,Zn2In2O5,0.5212000000000003
mp-1033130,Mg6AlZnO8,0.0
mp-684083,Sb(PO3)4,0.0
mp-773431,K2NiPCO7,0.0
mp-567957,Sm4MgRh,0.0
mp-865364,DyTaRu2,0.0
mp-1094915,MgBi,0.0
mp-562575,KMo(PO4)2,2.4394
mp-4073,Sm(CoB)2,0.0
mp-11375,EuHg,0.09650000000000024
mp-559985,CaP4O11,5.3424
mp-770531,MnP2O7,0.8516999999999999
mp-556434,AgBi(PS3)2,1.1797000000000004
mp-999077,Ti2GaFe,0.0
mp-1079457,Cu(BrN3)2,0.0
mp-24136,Cs(BH)6,5.3813999999999975
mp-768539,AlTlO3,0.7376999999999994
mp-677743,Na3Ca2Ta3Ti2O15,2.4216
mp-865381,Tm2IrRu,0.0
mp-1550,AlP,1.8238
mp-680181,Bi2Pb2S5,0.7227999999999994
mvc-7566,Ta2CoO7,0.0
mp-1099253,Mg3NiO4,2.6869000000000005
mp-771395,Li3Co4(BO3)4,0.44320000000000026
mp-1029828,RbCrN2,0.0
mp-2657,TiO2,1.7809999999999997
mp-1035413,Mg14VCuO16,0.0
mp-849525,Li2Fe3O3F5,1.9627
mp-582081,Cs3NdCl6,4.9486
mp-774310,Li10Cr2Fe3Co3O16,0.0
mp-683950,Ca10Pr4Cu24O41,0.0
mp-1040392,BaMg30TiO32,0.0
mp-17035,K3Sc(PO4)2,4.2975
mp-30800,NdZn2,0.012000000000000007
mp-560216,Cs2GeP4O13,4.1237
mp-865898,TiZnCo2,0.0
mp-24241,Rb3B12H12I,4.6171
mp-402,CdP2,1.4897999999999998
mp-569743,Ti4MnBi2,0.0
mp-37950,Na3(W2O3)2,0.03180000000000005
mp-32311,Re2NiO8,3.8916
mp-763178,Li4Ti3Ni3(TeO8)2,1.3917000000000002
mp-1099956,KNa7V6(MoO10)2,0.6071
mp-976587,KP2AuS7,1.5376
mp-774302,TiMn3O8,1.7216
mp-698210,RbCoH24(C7N4)2,4.2736
mp-1039365,CeMg,0.1127999999999998
mp-697817,Na2Sr6ZnFe6F34,3.4149000000000003
mp-865935,Li2MgSn,0.0
mp-754661,INO3,1.6497000000000002
mp-761358,Li4FeO3,2.4967
mp-1023930,MoW(SeS)2,0.4755000000000002
mp-27773,H5IO6,2.3706
mp-25740,Co3(AsO4)2,2.0046
mp-744631,V2PH10C2N2O8F,2.7561
mp-762307,Y7HoO12,4.0494
mp-871,FeSi,0.1809000000000012
mp-680579,ZnC2(SN)2,3.7233
mp-17491,Ba2LiGe3,0.09699999999999998
mp-757747,LiSn4(PO4)3,2.8044999999999995
mp-5924,MgSiO3,5.7928
mp-20958,Ba2LaReO6,0.010800000000000587
mp-570074,Sc3IrC4,0.0
mp-16135,Sm3NbS3O4,2.286
mp-580329,Pu3Sn,0.0
mp-560042,AsS3(NF3)2,1.483
mp-673699,Nd(CuO2)2,0.07860000000000067
mp-911538,Ce3AlN,0.0
mp-1067587,TaP,0.3608000000000002
mvc-16359,Ba2Ca2Tl2Cu3O10,0.0
mp-676232,KH5O3,4.3271
mp-20491,LaInCu2,0.0
mp-766345,Y5O4F7,5.2002
mp-1026393,Mg14TiCd,0.0
mp-773900,BaCa2I6,3.636800000000002
mp-554376,Y4TiSi2(O3F2)3,2.7199
mp-570099,RbVBr3,0.5839000000000003
mp-32983,Nb3S5,0.0
mp-1033389,HfMg6NbO8,0.0
mp-505012,Fe4As5O13,1.6572000000000002
mvc-3939,Ca3Si3(WO6)2,2.9333
mp-770161,Li2FePCO7,2.454
mp-972046,Yb2HgBi,0.0
mp-1029532,Ca2CoN2,0.0
mp-978089,Pr2IrAu,0.0
mvc-5982,Mg(WO2)2,0.9393000000000002
mvc-2667,Mg2Ta2VO8,1.6662
mp-754403,ZrO2,3.7233
mp-556598,Na2BeF4,6.6745
mp-16577,Li2CaHfF8,6.9952000000000005
mp-1099332,SrCeMg6,0.0
mp-674329,La2CdTe4,0.5282
mp-640416,Rb,0.0
mp-978652,SiHg3,0.0
mp-1078865,SbS4N3,0.0
mvc-6872,Ca(FeO2)2,1.5987
mp-8365,MnB,0.0
mp-675066,Nb3IrSe8,0.0
mp-977438,MgInRh2,0.0
mp-1301,Yb2S3,0.0
mp-4304,SmSnAu,0.0
mp-764722,Li3Fe8(BO3)8,1.4157000000000002
mp-510471,GdCuS2,0.9901
mp-1399,AlAu,0.0
mp-1093925,Ba2PAu,0.8443999999999998
mp-866621,Ca3Sn4S11,0.4116999999999997
mvc-4274,BiO2,0.0
mp-684991,NaCaScZn(SiO3)4,4.5493000000000015
mp-1016428,SrMg6C,0.0
mp-662815,Mn(GaS2)2,0.41090000000000027
mp-561382,NbBi4BrO8,1.4756999999999998
mp-27354,Cs3HgCl5,3.0401
mp-555363,Na2Cd(SiO3)2,2.87
mp-1097366,MgScIr2,0.12719999999999976
mp-755256,LiBiB2O5,3.2969
mp-781013,Li3V2P4(HO8)2,0.8002
mp-1028542,TeW2SeS2,0.0
mp-30725,YHg2,0.0
mp-22539,CeNiSb2,0.004400000000000404
mp-1096894,CrN2,0.0
mvc-2039,Ba2CaCuSn2F14,0.6465999999999998
mp-21479,LaIn5Rh,0.027000000000001027
mp-771616,Li7Mn5O12,0.7342
mvc-5151,Mg3Mn2(GeO4)3,0.28359999999999985
mp-28263,KH3O2,4.3804
mp-12521,SrNi3Ge2,0.0
mp-1039625,CsMg30BO32,3.6431
mp-542185,NaCu4(AsO4)3,0.0
mp-16261,Ca(GeRh)2,0.0
mp-72,Ti,0.0
mp-867373,Ti2Co12P7,0.0
mp-977547,MgZnRh2,0.0
mp-695635,Li3Al3P3H2O14F,5.7714
mp-972877,Sc2AlIr,0.0
mp-541852,Co21(ReB3)2,0.0
mp-672238,CeCuSb2,0.0
mp-764259,Mn4OF6,1.9792
mvc-10942,YMn2O4,0.0
mp-308,U3O8,0.06850000000000023
mp-1033940,Mg14NbCrO16,0.0
mp-763498,LiP2WO7,3.7422
mp-770493,Li5V2Fe5O12,1.1179
mp-775802,Zr2N2O,1.7373999999999996
mp-997016,AgClO2,0.8628
mp-568251,Ni6Se5,0.0
mp-770902,LiFeAsCO7,0.04520000000000002
mp-764535,Li3Fe8(BO3)8,1.4546
mp-568192,RbMoIO6,2.6081
mp-1028100,YMg14Co,0.0
mp-15549,K2LiAlF6,7.217799999999999
mp-606912,S4N5Cl,1.8899
mp-7080,Li5(NiN)3,0.0
mvc-12347,Zn(CrS2)4,0.0
mp-775256,Li4MnV3(P2O7)4,0.34939999999999993
mp-24845,Co(SbO3)2,0.7096
mp-863295,CsVGa(PO5)2,0.6576
mp-570510,Xe,6.1938
mp-765123,LiVCrP2(HO5)2,1.4381
mp-764211,LiVOF4,3.0138
mp-771025,Na2SiBSbO7,2.1623
mp-705421,Li4Ni3P4O15,3.7007
mp-763720,Li3V2P2O8F3,2.3586
mvc-12007,Y2(CuS2)3,0.0
mp-3136,NaNbO3,1.5249
mp-27211,KSb4F13,4.6612
mp-705579,Mg(FeO2)2,1.5759999999999996
mp-2263,ScIr2,0.0
mp-573066,CsC2S2N(O2F3)2,6.1689000000000025
mp-768058,Na2MnPCO7,0.5078000000000001
mp-675320,Ta2CuO6,0.0
mp-777087,Li4Nb2V3Ni3O16,1.6732000000000005
mp-764638,Li2FeO3,0.0
mp-773795,Mn2Cr3O12,0.6855
mp-18220,LiAlSiO4,5.249
mp-1027169,Te4MoW3S4,0.030200000000000227
mp-676491,Ca3Yb2Zr3Ti8O28,2.6925
mp-910209,Gd,0.0
mp-763308,V6O5F19,2.1006
mp-1078058,Ti(CrS2)2,0.0
mp-37045,Ce2SmS4,0.0
mp-567748,Zr2Al3C4,0.0
mp-767546,Na2AsPCO7,4.1675
mp-1069855,Co(ClO)2,0.0
mp-20250,PdS,0.0
mp-759873,Sb8O11F2,2.25
mp-8405,Li3LaSb2,0.2019000000000002
mp-775538,Li3Mn5FeO12,0.2355999999999998
mp-766358,Bi5O7F,2.4939000000000004
mp-571203,Sr(CoAs)2,0.0
mp-772545,Li3Ti(Si2O5)3,0.3088999999999995
mp-705380,LiMo2P3O13,2.7289000000000003
mp-775494,V3Co(PO4)4,0.8578000000000001
mp-973629,LuAlPd,0.0
mp-771783,Li3Co(NiO3)2,0.0
mp-18637,Na2Cu3(GeO3)4,0.4552999999999998
mp-15791,LiErS2,2.0066
mp-864661,ZnCuPd2,0.0
mp-20157,BaGdCuSe3,1.0212
mp-762291,LiCo2C2O7,0.0
mp-778073,TiMn7(PO4)12,0.0
mp-9230,KAlAs2O7,3.0235
mp-607514,Pr(In2Au)2,0.0
mp-1077466,CaBi2,0.0
mp-584116,Bi3(PO5)2,0.0
mp-758311,Li2CuSiO4,0.0
mp-29302,Ba3(GaS3)2,2.6755000000000004
mp-3552,Li2Si2O5,5.5433
mp-31992,LiMn2P5O16,1.1501
mp-774182,Li3Cr(PO4)2,2.7229
mp-770095,Li(FeO2)2,0.0
mp-720739,ZnP2H6O5,4.7801
mp-1070544,CrGa4,0.0
mp-561299,As2Pb4S6ICl,1.829
mp-720703,NaUHOF5,0.0
mp-571246,GeBr4,2.9647
mvc-3024,SrCaP2WO8,2.2244
mp-567928,CsBi3Se5,0.9987999999999996
mp-778279,NaLiMnP2O7,3.8104
mp-706579,KH3(SeO3)2,4.4838000000000005
mp-11118,CsPrCdSe3,1.9664
mp-1080643,LaFeSi2,0.0
mp-631635,TaCoSn2,0.0
mp-1096412,ScZn2Cd,0.0
mp-35308,CuCN,2.5202
mp-766809,Li3Cr2CoO6,0.7767
mp-705882,LiNi2P4H3O14,4.3193
mp-1095836,Nb2RePd,0.0
mp-763188,Mn12O5F19,0.1109
mp-767678,Li8Cr3TeO12,0.8811
mp-614311,CsCSN,4.480099999999998
mp-1080329,CeSe2,0.8863999999999999
mp-1094723,CeMg2,0.0
mp-14226,Ba2YSbO6,0.0
mp-761057,Sr5Nb4O15,2.8004
mp-771525,Li3MnPCO7,3.8051
mp-1097140,SiTc2Sb,0.0
mp-1017207,Mg6CdC,0.0
mp-647134,SrCr2O4,2.9184
mp-1068583,Hg(NCl)2,0.8311000000000001
mp-559676,SnS,0.3127000000000004
mp-774407,Hg2W2O7,2.1528
mp-581026,Mn(C2N3)2,1.5869
mp-639347,BaEuFe2O5,0.0