mpid,formula,gap pbe
mp-1095637,PrP2,0.0
mp-1068908,Ce(GeAu)2,0.0
mp-10006,TlAgTe2,0.0
mp-3847,DyCoC2,0.0
mp-861694,CoPO4,1.1681
mp-1017427,Mg6SiB,0.0
mp-765839,CoRe2(H2O3)4,2.9872
mp-569764,RbCu2I3,2.0713
mp-30583,ZrCuHg2,0.0
mp-643101,Rb2H6Pt,4.0644
mp-762506,SrNiO3,0.0
mp-754171,CsRbO,1.2535999999999998
mp-775663,TiMn(PO4)2,1.7391
mp-1075734,Mg5Si9,0.0
mp-1034935,BaMg14ZnO16,0.7457000000000003
mp-9062,RbS,1.5613
mp-767041,Li4Ti2Fe3Cu3O16,0.0
mp-1029073,Te2Mo(WSe2)3,0.006299999999999972
mp-557331,FeS4N4Cl3,0.9175
mp-1075796,Mg3Si2,0.0
mp-868663,Li3Cr4(PO4)6,0.04479999999999995
mp-15983,Ba2NaNb5O15,2.6197
mp-779170,Mn4O7F,0.0
mvc-10263,MgSn3P3O13,0.0
mp-1094850,MgGa,0.0
mp-776116,AlPdO3,0.0
mp-866659,H34C19,5.6789999999999985
mp-1039019,MgAl,0.0
mp-607931,Cs3NaLi2(BO3)2,3.4539999999999997
mp-21418,MnSnPt,0.004000000000000448
mp-19521,Al2(MoO4)3,3.7586
mp-31795,LiFe(PO3)4,2.7427
mp-767623,LiMn2(PO4)2,0.0
mp-1034976,LiMg14CoO16,0.3180999999999994
mp-776852,Li4V2Ni3Sn3O16,1.4507999999999996
mvc-9994,V2ZnO4,1.3592999999999995
mp-22192,Si3Ru2,0.5510999999999999
mp-579552,La2CO5,3.932999999999999
mp-11977,LiSnAu,0.0
mp-570995,TiHg6As4Cl7,0.2645000000000002
mp-759596,LiBiP2O7,4.0556
mp-1091374,NbCrN2,0.0
mvc-10116,ZnCu2(BiO4)2,0.21879999999999988
mp-685633,Y10U4O27,1.6892999999999998
mp-556497,RbNi2F6,0.0
mp-1064719,LaNi,0.0
mvc-15568,ZnNiO2,1.5052
mp-31415,La3TaO7,3.533199999999999
mp-763599,LiFe2(CO3)4,0.09719999999999997
mp-555567,S5N2ClO6,1.3105000000000002
mp-990091,Ag2WS4,0.8692999999999997
mp-540135,Li2Mn(PO3)4,4.916399999999999
mp-1095291,Li2SnSe3,1.249
mp-2664,TiO,0.0
mp-689441,Cs2KMoF6,4.185099999999999
mp-775177,Co3Cu(PO4)4,0.0
mp-1026552,SrHfMg14,0.0
mp-707343,ZrH12C2(NF)6,4.7771
mp-743870,MgCoH16(ClO2)4,3.0051
mp-861179,Zr7VO16,1.7619999999999998
mp-773925,Li4V3NiO8,0.9832
mp-765671,Na8(NiO2)9,0.3853
mvc-12162,Y2Mn3O9,0.0
mp-19967,LuMnSi,0.0
mp-20290,TbCuPb,0.0
mvc-9677,Ba2AlCr2F11,3.1102000000000003
mp-866220,CaNdZn2,0.0
mp-722344,KCa4B22H18ClO46,5.5101
mp-1096605,GaFeRu2,0.0
mp-4967,MgSO4,5.8082
mp-554236,Ca5P3ClO12,5.3001000000000005
mp-764115,V3O7,1.1608
mp-984876,Ba2Pd2O5,0.0
mp-24287,CrH,0.0
mp-21108,U6Fe,0.0
mp-558870,P3RuO9,0.02000000000000001
mp-1018068,CrFe2Si,0.0
mp-771547,Na3NiAsCO7,3.304
mp-29819,Ba2Si3Ni,0.0
mvc-12189,Ca(FeO2)4,0.0
mp-978862,SrAlO3,0.0
mp-1039390,Ca2Mg,0.0
mvc-6446,Mg3Mn3(AsO4)4,1.8856
mp-764434,Li2VF6,1.9285
mp-557824,Rb2(ReS2)3,1.359
mp-13918,Sr(GeAu)2,0.0
mp-753277,LiAgF2,1.2067
mp-1023274,CaMg6Mn,0.0
mp-1093923,Sc2GaCo,0.0
mp-777617,LiV2OF5,1.6704
mp-764008,VOF2,1.1179999999999999
mp-560610,Sr2Co(ClO)2,0.1925999999999997
mp-1099129,Mg14MnSiO16,0.6365999999999996
mp-705581,Al2CoO4,1.2461000000000002
mvc-8878,MgTiCu(PO4)3,0.0
mp-570693,SbSe3N2Cl7,1.699
mp-704669,BaYb2(MoO4)4,0.0
mp-30113,Zr(Se2Cl3)2,1.3186
mp-1078991,ErTe3,0.0
mvc-8959,CaLaFeSbO6,1.9744
mp-6639,RbGeSbO5,2.4629
mp-29144,KTe2F9,4.5077
mp-505132,Ta3Te14Pd3,0.0
mp-20419,Ca4In2N,0.0
mp-773039,Li2Ti6Zn3O16,2.849
mvc-14582,WF4,3.444
mp-849550,LiFeP2O7,1.2947000000000002
mp-570525,LaZnRh,0.0
mp-1077831,EuScGe,0.0
mp-650674,TeAs(Se2F3)2,1.4334
mp-11980,CsNbF6,5.2029999999999985
mp-1029872,Sr2ReN3,0.0
mp-990558,EuTe,0.0
mp-22309,CoSe2,0.0
mp-1009007,LuSb,0.0
mp-1038710,CsMg30GaO32,3.0620000000000003
mp-653901,K14Fe4O13,2.2344
mp-1034386,CsMg14TiO16,0.0
mp-761763,Li2FeCo3O8,0.4297
mp-768968,Li4B4Sb2SO16,2.5610000000000004
mp-759793,LiTi2(PO4)3,2.6006
mp-31774,V2Fe3(SiO4)3,0.003499999999999837
mp-1004762,LiMn4O8,0.0019000000000000128
mp-30275,BaP8,0.8862999999999994
mp-770069,Li4CrFe(WO6)2,0.7415
mp-961675,ScNiP,0.5921000000000003
mp-762171,Li4Fe3Co3(SbO8)2,0.5400999999999998
mvc-3151,Ca4Ni5(TeO6)3,1.7952999999999997
mvc-8985,LaFeWO6,1.7712000000000003
mp-764229,LiV(OF)2,2.0841
mp-1031438,Mg6TiBO8,0.0
mp-722988,TeP4H26(NO5)4,3.5395
mp-974745,Rb3Tm,0.0
mp-554427,NaCoO2,2.1096000000000004
mp-756402,YHO2,4.6373
mp-685512,Ag15Bi7I40,0.0
mp-991709,GdIn3,0.0
mp-770684,LiCr2O4,0.2767999999999997
mvc-7860,CaCrBiO5,0.9176000000000002
mp-1017510,MgTe,0.8062999999999994
mp-629397,FeNiN,0.0
mp-30338,Y3Al,0.0
mp-10018,Ac,0.0
mp-773061,Ba6Ti7Nb9O42,0.0
mp-10480,CsAg5Se3,0.34689999999999976
mp-766919,Li8MnCr3O12,0.8872999999999998
mp-11236,MgZnAg2,0.0
mp-649747,K2SbF5,4.2759
mp-764518,LiFe8(BO3)8,1.3962
mp-1095086,Ta,0.0
mp-760491,Ce4Y2O11,1.8249
mp-774235,LiCr3O4,0.045099999999999696
mp-561499,Dy3CuSnS7,1.4820000000000002
mp-631256,FeNiMo,0.0
mp-853257,NaV10O15,0.0
mp-559200,Cd(InS2)2,1.0509
mp-1095117,Pr(BC)2,0.0
mp-765926,VF4,1.8728
mp-560993,CaAl12Si4O27,5.236199999999998
mp-556641,Na2LiAlP2H2O9,5.1375
mp-1094249,MgSn3,0.0
mp-672684,Zn6Sb5,0.0
mp-977404,Nd2AgIr,0.0
mp-770867,Li2VBO4,1.8957
mp-849485,Mn12O7F17,0.0
mp-1095913,LiLaIn2,0.0
mp-19302,NaCaVO4,3.6886
mp-20848,TmIn,0.21419999999999995
mp-1096920,Cr3O5,0.5747
mp-978252,Ce2Zn17,0.0
mvc-8051,Ca2V3O8,1.6111
mp-637232,TaSe2,0.0
mvc-8073,ZnSn(GeO3)2,1.6763
mp-763297,CoP4O11,3.1506000000000007
mp-770166,Li2FePCO7,2.4529
mp-1098801,Mg30NbZnO32,0.33030000000000026
mp-532526,Li2PdO3,0.0006999999999997009
mp-767838,LiFeSiO4,2.7268
mp-761804,LiMnPO4,3.3371000000000004
mp-1076264,Ba2Sr6Co3Cu5O24,0.0
mp-775752,Li6VSn3(PO4)6,1.5020000000000002
mp-101,Ir,0.0
mp-643066,ZnH2SO5,4.2653
mp-1018733,IrN2,0.0
mp-770562,Li6AlCrO6,2.9988
mp-10930,TbSF,1.2587000000000002
mp-680180,K3Co(CN)6,4.134399999999999
mp-675792,Ga2HgTe4,0.22270000000000006
mp-31449,HoAgPb,0.0
mp-1018151,NbPd2,0.0
mp-1039605,Ce2Mg,0.0
mp-23711,MgH2,3.6284
mp-697196,Ta,0.0
mvc-9937,MgSn2P2O9,1.6000999999999994
mp-777002,Li4V5Cr3O16,1.0910000000000002
mp-754948,Cu6OF11,0.0
mp-1028418,SrMg14Co,0.0
mp-10247,U2CrN3,0.0003000000000010772
mp-865182,Gd2SCl4,1.7004
mp-631481,NaSrNb2,0.0
mp-779366,LiCr(PO3)4,2.6061
mp-6599,KNb(CuSe2)2,1.4205
mvc-16268,YMn3O6,0.0
mvc-11030,CaLa2MnO6,2.2973
mvc-3865,Mg2Sb2O5,2.4926000000000004
mp-21666,Nb3(Fe10B3)2,0.012400000000000407
mp-8333,RbNaSnF6,5.100099999999999
mp-1096902,BaNb2Fe2O9,1.1067
mp-601420,Ce(SiAu2)2,0.0
mp-667418,As5Pb3S10,0.11540000000000016
mp-554430,NaCu(IO3)3,0.4349000000000003
mp-861904,La3AlCrS7,0.0
mp-561825,Sr2Mn3(BiO)2,0.0
mp-680761,Cd3(PO4)2,2.3908
mp-13875,Al8(Pb3O7)3,2.8716
mp-558340,Nd5As2ClO10,3.2958000000000003
mp-20089,GdFe2,0.010899999999999466
mp-973539,LuAl3,0.0
mvc-2602,Ni5O7,0.0
mp-772443,FeSn3(PO4)6,0.0
mvc-12108,CaMn2O4,1.524
mp-7208,Yb2Se3,0.0
mvc-1726,ZnSn(PO3)4,3.5097
mp-977541,Hf2TcOs,0.0
mp-672339,Ag2Hg7(P4I3)2,0.7439
mp-32321,LiNiP2O7,0.04100000000000015
mp-1025444,ErPt,0.0
mp-978099,K3Gd(PO4)2,2.8376
mp-7567,UGeO4,0.0
mp-776015,Li2Ti3NiO8,2.2797
mp-558469,Ag2PS3,1.7759000000000005
mp-554473,Na2MnGaF7,2.7127
mp-780902,Mn6O5F7,0.0
mp-541686,K3GaS3,2.7118
mp-13160,YZnGe,0.0
mp-981536,RbMnP,0.0
mp-984715,Ba3Er,0.0
mp-1098676,KMg30MnO32,0.8569999999999993
mp-764366,LiCoCuO4,0.0
mp-540895,CsCo(CO)4,3.8664
mvc-6749,ZnCuW2O7,0.5916999999999999
mp-29550,Ba2EuCl7,0.0
mp-626173,HoHO2,3.9498
mp-17947,BaCu2GeS4,0.9665
mp-1073398,MgSi2,0.0
mp-5032,La3Ru3O11,0.0
mp-1067664,MnGaCo2,0.0
mp-568273,LiI,4.222
mp-762380,La9Mn10O30,0.0
mp-1076492,La6Sm2Co7AgO20,0.0
mp-765262,Li3Cr(BO3)2,3.0780000000000003
mp-542403,HoCoSn2,0.0
mp-1095529,LuH2ClO2,4.8063
mp-31231,Sr5Mo2N7,1.2876
mp-9483,Zr9V4S,0.0
mp-542697,Rb2RuO4,0.6533000000000001
mp-769971,BaGa4O7,2.3813
mp-2804,LaP2,0.5579999999999998
mvc-11190,Mg(NiS2)2,0.0
mp-10173,Li,0.0
mp-1080177,PuAlNi,0.0
mp-706332,Co(Bi5O8)5,0.4478
mp-7817,YB12,0.0
mp-7604,Mg3NF3,3.5817
mp-3336,LaGaO3,3.3763
mp-1018725,HoFeSi,0.0
mp-971979,Tm2ZnAg,0.0
mp-753626,Li2NdPCO7,4.5289
mp-997038,AgPdO2,0.08999999999999986
mp-733443,Ca7Si6H4CO23,4.581099999999998
mp-7276,ScUS3,0.0
mp-640889,Tm(CuTe)3,0.3841000000000001
mp-21597,Ce3(GeRh)2,0.0009999999999994458
mp-556056,Pr10S14O,1.8415000000000004
mp-3715,CoGeTe,0.053300000000000125
mp-554847,SbP(Cl3O)2,2.2525
mp-30037,AgIO4,0.0964999999999998
mp-1864,LaP5,0.11029999999999962
mp-761511,Li6VFe3(PO4)6,1.7817999999999998
mp-559388,U8FeS17,0.0
mp-570009,Np(MnSi)2,0.0
mp-1040090,CsCeMg30O32,0.37230000000000096
mp-961701,ZrAgB,0.0
mp-27409,RbNiBr3,0.6519
mp-1078784,Sc3RhC4,0.0
mp-1022632,YMg6Cd,0.0
mp-569141,Lu11Te4,0.0
mp-555203,Sr5B3ClO9,3.9640999999999993
mp-779913,Fe3OF5,1.7289
mp-560021,AuS3(O3F)3,1.5564
mvc-10620,Ba2Tl2Zn3(SnO3)4,0.0
mp-20128,Eu(MnAs)2,0.011999999999999568
mp-13485,Eu(AlAu)2,0.01920000000000055
mp-1186,ZrS2,1.0478000000000005
mp-780534,Rb(BH)5,4.0007
mp-689972,Co(PO3)4,0.0
mvc-6340,Ca(MoO2)2,1.0978000000000003
mp-5360,Ba3Nb16O23,0.0
mp-25145,VO2,1.3754999999999995
mp-642422,RbP2WO8,3.4845999999999995
mp-27805,Ba3SiS5,2.9751000000000003
mp-697075,Ti3Zn3N,0.0
mp-5031,TaSiAs,0.0
mp-756927,Li5Nb2Cu5O12,0.0
mp-744702,MoH6NO3F2,2.7803
mp-1028113,KMg14Mn,0.0
mvc-582,YTe(WO4)2,0.17989999999999995
mvc-9840,Ca(CuO2)2,0.0
mp-550111,SmBi2BrO4,1.2782999999999998
mp-570285,SiBr4,4.1057
mvc-6,Nb2Zn2TeO8,1.0583
mp-505310,Sr3Fe2Cu2S2O5,0.7095000000000002
mp-8943,PtF4,1.1225
mp-1098703,CeSe2,0.8352
mp-867894,Sm2MgAl,0.0
mp-770977,Ca2CeO4,2.2602999999999995
mp-27160,WCl5,0.05870000000000002
mp-1096798,ScAgO2,1.78
mp-762800,Li4VF7,0.0
mp-601193,Pt3O4,0.0
mp-669381,Pb2OF2,2.2158
mp-684968,BaYbAl2SiN5O2,1.1311
mp-1093568,YZn2Pd,0.10139999999999992
mp-675069,LiNbO3,3.0231000000000003
mp-683831,Fe3MoC11SeS3O11,2.1224
mp-773731,Co3OF5,0.08619999999999994
mp-1036254,CaMg14BiO16,0.030499999999999968
mp-864608,NpGaRh2,0.0
mp-865031,Mg2ZnB2Ir5,0.0
mp-770951,Li4Mn3Ni3(TeO8)2,0.09860000000000024
mp-774124,Li2MnO2,0.0
mp-1022594,Mg6ZnGa,0.0
mp-559923,Nb(PS4)2,1.2752
mp-568792,Si5Rh4,0.0
mp-680468,Tb6In23Pt12,0.0
mp-1036147,SrMg14MnO16,1.5666000000000002
mp-2305,MoC,0.0
mp-23390,RbCdCl3,3.5541
mp-5769,Li3SbO4,3.0560000000000005
mvc-3393,Nb2Zn2FeO8,2.291
mp-1096562,Ca2ZnGa,0.0
mp-33857,CrSbO4,1.2816
mp-560754,SiO2,1.36
mp-17404,Y2Si2O7,5.1098
mp-582984,Pr6Fe13Pb,0.0
mvc-8156,ZnSn(GeO3)2,2.0364
mp-625,Mg3Ru2,0.0
mp-779378,Na4NiO4,0.0
mp-606470,RbMnO2,1.9609
mp-762008,LiNiPO4,3.0821
mvc-16808,Li(CoO2)2,0.0
mp-771411,Sr3GeO5,2.5648000000000004
mp-554384,NaSb(PS3)2,2.0415999999999994
mvc-1474,YV3Se2ClO8,0.9766999999999996
mp-22221,MnCu2Sn,0.00990000000000002
mp-763522,Li3V3(PO4)4,1.8697
mp-672215,Gd(PRu)2,0.0
mp-1019363,ThTeAs,0.0
mp-669328,ReTe3Br5,1.2721000000000002
mp-1021656,LiCeMg6,0.0
mp-1069604,CaSi3Pt,0.0
mp-1060432,MnSb,0.0
mvc-15147,V3(P2O7)2,0.0
mp-767195,Mn5O3F5,0.0
mp-28863,Y6OsI10,0.0
mp-645305,LiFe(GeO3)2,2.7503
mp-31383,Hf6CoBi2,0.017599999999999838
mp-774113,LiVSiO5,2.0428
mp-763120,Cr2CoNi3(PO4)6,0.0
mp-1080066,LiTmSn2,0.0
mp-859120,ThNb4O12,1.7238000000000002
mp-754790,Ti3N2O3,1.5473
mp-1094409,YMg2,0.0
mp-865030,HfScRu2,0.0
mp-1093823,CaMgCd2,0.1254000000000004
mp-677222,Ba3La3Ti4NbO18,2.4083
mp-7098,Np,0.0
mp-629499,Na4FeO4,0.3336999999999999
mp-773773,Na5LiMn2P2(CO7)2,3.3086
mp-543033,Ce3S3N,0.000900000000000567
mp-656207,Sc2H10S3O17,2.6195
mp-1094552,MgSb,0.0
mp-1096766,CeCuN2,0.0
mp-780590,Fe4O7F,0.0
mp-6628,CsCd(NO2)3,2.4366
mp-738629,CsGaH24(SO10)2,5.2373
mp-560463,Li2B4O7,3.7379
mp-566331,Ba2Mn3(SeO3)6,0.9555999999999998
mp-781613,Li4Fe3Co5O16,0.0
mp-974058,LiCu3,0.0
mp-767596,Li2VSiO4,1.6609999999999996
mp-3000,Cr3GaN,0.0
mp-756628,Li4NbO4,0.0
mp-631329,KMoRu2,0.0
mp-12024,RbVSe2,0.0
mp-1028187,CaMg14Cu,0.0
mp-745148,MnP2HO7,1.6707999999999998
mp-3835,Ba(Mo3S4)2,0.0
mp-709723,Al2P3H17C4(NO6)2,5.2261000000000015
mp-865341,Tm2InOs,0.0
mp-757395,Li11(RuO3)8,0.0
mp-754238,Li2CuBiO4,0.0
mp-764741,Li3Fe8(BO3)8,1.3091000000000002
mp-9130,CrSbS3,0.7702
mvc-15486,W3O8,1.7018
mp-861977,PaGaNi2,0.0
mp-700127,Pr5(Mo16O27)2,0.03859999999999975
mp-3839,GaCuTe2,0.20330000000000048
mp-1080782,BaClO3,0.09499999999999996
mp-14058,KMg(PO3)3,4.9473
mp-780218,Na5LaO4,2.069
mp-774098,LiVCrO4,1.1529999999999996
mp-639662,CrF5,1.3584
mp-560516,Co(RhO2)2,0.7908
mp-8930,K2GeAs2,0.8328000000000002
mp-1096709,Cd2AgPd,0.0
mp-13660,Ca4Sb2O,0.9093999999999998
mp-555759,Re2(HgO2)5,1.2845
mp-754004,TmHO2,4.5627
mp-696396,NaHCO3,5.2718
mp-1852,UF5,0.6921999999999999
mp-764178,Li3V3P8O29,1.2246
mp-1022476,Mg6FeCo,0.0
mp-780686,Fe2O3F,0.0
mp-40161,NaHf2(PO4)3,5.0464
mp-1097207,YHfRu2,0.0
mp-772260,Li10Ti4O13,3.9595
mp-654,Ce2Fe17,0.0066000000000006045
mp-779682,NaScP2(HO4)2,4.8819
mp-12350,SiO2,6.1956
mp-557581,ZnH2(CO2)2,4.5082
mp-1022033,Mg6CoSb,0.0
mp-770097,Al(NiO2)2,0.0
mp-25172,Ba3WO6,2.9798
mp-567856,MnAsRh,0.0
mp-1068773,LuAu4,0.0
mp-753711,Ca3(PO4)2,4.5074
mp-7142,OsC,0.0
mp-850987,LiCo2O2F3,0.0
mp-772214,LiZr2O4,0.0
mp-561826,Cr3CuO8,0.4962999999999997
mp-29359,Na2PdCl4,1.1864
mp-744032,VH12C2S2(O2F)6,2.4226
mp-1019266,SmTe2,0.0
mp-7457,SnF2,3.2522
mp-766332,BaCa2I6,3.3113
mp-557871,CuAsPbO4,1.7890000000000001
mp-687088,Co2TeBr2O3,2.3675
mp-763197,Li2VO2F,1.1250999999999998
mp-16605,Sr2TmTaO6,3.8822
mp-26532,Cu2P3O10,0.0015999999999998238
mp-850399,LiVPHO5,2.2039
mp-1077784,NaMnBi,0.0
mp-29927,Pb7(BrF6)2,4.0573
mp-648573,ZnAg2C4(SN)4,3.0618
mp-8901,Rb2VAgS4,1.3325
mp-1099837,K2V2O5,1.0549000000000002
mp-771619,Li5Cr2Ni3O10,0.0
mp-1094565,MgSb,0.0
mp-561194,La10S14O,1.9411
mp-1076891,K2Na2Mo3WO10,0.4965000000000002
mp-756933,TaTlO3,0.44579999999999975
mp-756202,Ba2SrI6,3.5958
mp-1084826,Nd2Co3,0.0
mp-763266,Li2CrO4,2.8805
mp-861175,Li2VF6,1.7703
mp-972454,Sm2Mg,0.0
mp-690495,Fe5SnO8,1.0352000000000006
mp-861685,Li6Mn5CoO12,0.0
mp-28647,AsBr5F6,1.6203
mp-767430,Na3CdPCO7,3.1961
mp-753090,Li2Cu2F7,0.005400000000000071
mp-2387,Th2Zn,0.0
mvc-2450,Mg2W9O13,0.0
mp-554793,YH7C4O11,3.5367
mp-30958,Ca(BS2)2,3.0095
mp-4889,Y(GeRh)2,0.0
mp-753768,TbPrO4,0.0
mp-761380,Li3V(PO4)2,2.0582000000000003
mvc-5391,Zn(SnO2)2,0.8740999999999994
mp-989460,B2(CN2)3,2.7415
mp-569905,NaLa6OsI12,0.4035000000000002
mp-775292,Li2V(Si2O5)3,1.9506
mp-582357,Eu(FeSi)2,0.0
mvc-10002,Ca(MoO2)2,1.6191999999999998
mp-754434,Hf3N4,1.0903999999999998
mp-1028382,SrMg14Ni,0.0
mp-626431,Al(HO)3,4.9443
mp-504828,NdH12(NO5)3,3.3038
mp-4264,K2S2O5,3.1804
mp-1097176,SrLiTl2,0.0777000000000001
mp-861494,V3CoO8,1.4267
mp-1039549,CeMg2,0.0
mp-1441,CsO2,0.0
mp-991909,LiEuH3,0.0
mp-1025087,NdNiSb,0.0
mp-781628,Li7Mn8(BO3)8,0.5628
mp-695237,Rb2PH3SO8,0.7542
mvc-13321,Sr2YW2O7,0.0
mp-1096896,CrN2,0.07180000000000009
mp-555728,H6C3SN3O2F3,2.1838
mp-761619,LiMn(SiO3)2,1.1997999999999998
mp-21388,U(CuGe)2,0.0
mp-865496,VIr3,0.0
mp-1096940,CuBO2,1.4575999999999991
mp-976944,Li5Mg,0.0
mp-1094867,MgZn3,0.0
mp-562001,Cs11O3,0.0
mp-1080121,KSe3,0.3855
mp-553907,Rb3AgO2,1.5831
mp-645708,Co5Se4(ClO6)2,2.4701
mp-21520,NaCeP2O7,0.05239999999999957
mp-764095,Na2VPO6,3.029
mp-1096028,MnHgPd2,0.3811000000000005
mp-975390,RbCa3,0.0
mp-19180,VFeMoO7,2.2675
mvc-8271,MgVNiP2O9,1.9340000000000002
mp-20208,Sm(Sn3Ru2)2,0.0
mp-772468,Li2Cr3(CoO6)2,1.7890000000000001
mp-765977,Li2Ni(PO3)5,0.1663
mp-971779,ZnRh3,0.0
mp-27483,Li5TlO4,1.66
mp-999177,SmGa,0.0
mp-704940,LiMnP2O7,0.9387
mp-5951,CeMnNi4,0.0127000000000006
mp-744919,Mn3Mo2H34C22N16O5,1.0399
mvc-9682,MgSb2P2O9,2.1411999999999995
mp-761391,LiCrPO4,2.8257000000000003
mp-989521,Cs2SCl6F,0.0
mp-645701,Er17(TeRu2)3,0.000399999999999956
mp-780874,KLi2Mn2O4,1.0793
mvc-14346,CaCoF4,2.9636
mp-1014347,Cr3N4,0.0
mp-30982,Ag2SO3,2.2506
mp-1018640,Tm(CuS)2,0.0
mp-556048,Nb2O5,1.5321
mp-1038234,KMg30AlO32,4.4469
mp-29735,Nb10Ge7,0.0
mp-28090,Si2H2S3,3.3542
mp-1038199,NaMg30AlO32,4.6325
mp-849752,Li4Cu3Sn(PO4)4,0.0
mp-769823,Li5Mn5V2O12,0.258
mp-774140,TiNi(PO4)2,2.7069
mp-10148,InSb,0.0
mp-585265,LiMo2(PO4)3,1.3906000000000005
mp-777013,LiNi(SO4)2,0.0
mp-26209,LiBiP2O7,4.150399999999999
mp-642320,Bi32P10Pb3O76,2.2872000000000003
mp-1040175,KHfMg30O31,0.0009999999999994458
mp-690473,Na3(WO3)4,0.0
mp-567182,NaW6CCl18,0.1048
mp-697921,Mg5H8O9,3.5747000000000004
mp-972036,WN,0.0
mp-15837,Nb5Se4,0.0
mp-762938,Li3Mn4F15,0.0
mp-999117,TcN,0.0
mp-770762,La7(FeO8)2,0.0
mp-634706,NiO2,0.2672000000000001
mp-767325,MnOF2,0.3771
mp-676300,Sc3NbO7,2.0596
mp-703517,NaMgPH12O11,0.3180000000000001
mp-791893,V3Cr2Ni(PO4)6,0.0
mp-690129,BaMnO3,0.8679000000000001
mp-767367,VOF,1.9991
mp-600151,KNa2AlH6,1.3404
mp-758520,LiCuPO4,0.008199999999999985
mp-31753,RbCr3O8,1.8403
mp-29568,RuS3Cl8,1.8602
mp-2764,LaNi3,0.018299999999999983
mp-1592,Ag2Te,0.0
mp-606382,Cr(OF)2,2.6878
mp-771805,Na2FeBAsO7,0.6268
mp-6951,RbCdF3,3.1745
mp-555641,Nb2Te4Cl10O,1.181
mp-504406,Cr4P9O32,0.02339999999999999
mp-998367,YReN3,0.0
mp-556787,K2Cu3S3O13,0.1973000000000001
mvc-1001,CaCr3(P2O7)2,2.2481
mp-1001827,IrC,0.0
mp-569471,UB2C,0.0
mp-686581,In2(PSe3)3,0.7303000000000002
mp-756173,Li5FeS4,0.5527
mp-1096570,ScAl2Tc,0.0
mvc-15157,Y8Cu3(SiSe7)3,0.0
mp-698600,Li11Mn13O32,1.0444
mp-14577,Rb4Ta2S11,1.7127
mp-977584,Zr2ZnAg2F14,0.3189
mp-998568,KAgBr3,0.0
mp-707324,PH6SN3,4.1777000000000015
mp-735566,KFe2P2H5O11,2.5033000000000003
mvc-4133,Ca2CoSbO6,0.6813000000000002
mp-662702,NaIO4,0.0
mp-761711,Li4V3SiO10,1.4529
mp-1097069,Sc2TlOs,0.0
mp-1064427,GdBr,0.0
mp-778757,Na2CoO3,0.0
mp-757663,LiSn(PO3)4,0.12369999999999992
mp-1099143,Mg14MnCrO16,0.2115
mvc-10539,MgMn3P3O13,0.06959999999999987
mp-611049,MgCrF6,1.5333
mp-554669,Ba3Ta2CdO9,3.4856
mp-771256,Sr3(AsO4)2,3.5424
mp-571235,ZrI4,2.0134000000000003
mp-1093765,HfAgAu2,0.0
mp-675488,Li6I3N,2.3574
mp-867152,EuMgGe,0.0
mp-771760,Na3CoSiBO7,0.0
mp-706258,Sr2La3Ti2Cr3O15,1.5872000000000002
mvc-3281,MgVPO5,1.4879999999999995
mp-773498,Na6Sn2O7,1.9929
mp-764557,V6O5F19,2.266
mp-762297,Li5V3P8O29,0.8131999999999999
mvc-9661,PrZn(FeO3)2,0.0
mp-981385,Sc3P,0.0
mp-780512,Li2Mn3(BO3)3,0.06259999999999999
mp-20448,Gd(MnSi)2,0.0013999999999994015
mp-7810,UVC2,0.0
mvc-4908,Ca(MoO2)2,2.2258
mp-703291,Ba3CuP2Br3O7,2.8621
mvc-10359,ZnCu2(SnO4)2,0.32250000000000023
mp-542621,TaSe2,0.04039999999999999
mp-1027868,HfMg14Zr,0.0
mp-995225,CsBaSiHO4,3.9698
mp-20845,Dy2Sn2O7,2.7123
mp-1393,Sn4Au,0.0
mp-777663,LiMn2(BO3)2,0.4929000000000001
mp-778345,Li2FeF5,3.4609
mp-1079761,Ho(NiSb)2,0.0
mp-567542,PbI2,2.3829
mp-763006,LiMnF4,0.4745
mp-606312,InP3(HO5)2,3.9704
mp-30490,Mg3Cd,0.0
mp-570828,AlHg2SbCl4,0.8835
mp-1096411,Zr2InTc,0.0
mp-777086,LiV2OF5,1.2137
mp-1072444,UPt5,0.0
mp-773671,MnFe(PO4)2,0.0
mp-530303,Mg(GaO2)2,2.2577
mp-1099026,CaMg14FeO16,2.5861
mvc-3006,SrV(PO4)2,1.7375
mp-1017580,KMgH3,0.0
mp-540558,S5N4O3,1.845
mvc-1057,Ba2YV3O8,0.0
mp-541728,Si2Ag6O7,0.2254999999999998
mp-560476,Rb3NaTiO4,3.2452
mp-766349,BaCaI4,3.3672
mp-1028843,Te3MoWSe,0.33389999999999986
mp-1095685,Tm3(FeGe)4,0.0
mp-19218,Sr3Fe2O5,0.8606000000000003
mp-650814,GaRe2(CO)9,2.1241
mp-996162,Nb2AlC,0.0
mp-20395,VAsRh,0.005300000000000082
mp-19758,Sm3PbC,0.0
mp-1096288,LiSi2Ir,0.2509999999999999
mp-1019718,CsBe4(BO3)3,5.4195
mvc-35,Ca(NiS2)2,0.0
mp-763886,La7Mn8O23,0.0
mp-1009639,PrN,1.5598
mp-773509,VCr2O6,0.0
mp-555250,AgH9C7S2(OF)4,3.1297
mp-762643,LiFeSiO4,1.6568999999999998
mp-24886,Sr2UCoO6,1.4469000000000003
mp-21421,Pu2SO2,0.003500000000000725
mp-1076936,ThSiSe,0.0
mp-571513,Rb2NbCl6,0.0
mp-18421,Ba2Ga2S5,2.7747
mp-975443,InCuO3,0.0
mp-31498,BaPt,0.0
mp-17672,BaLi(B3O5)3,5.7832
mp-1026763,SrLaMg14,0.0
mp-775229,Li3MnV4O12,0.0
mp-542813,K2BeH4(SeO5)2,3.6123
mp-8324,Dy2S2O,2.5645
mp-680247,K3P6S6N7,3.5462
mp-21323,DyGeIr,0.0
mp-999295,PrN,1.0770999999999995
mp-777591,Li4Ti5Fe3O16,1.1951999999999998
mp-1031428,Mg6TiCrO8,0.0
mp-1095596,Ca2BAsO8,0.0
mp-850106,Li3(NiO2)4,0.03010000000000002
mp-554713,ZnS,2.0368
mp-622901,Co6C13(SO6)2,1.6418
mp-1026958,TeMo2Se2S,0.0
mp-1021321,Mg6TiSb,0.0
mp-998536,RbCaBr3,4.2996
mp-745257,V2H15(NO4)3,0.4820000000000002
mp-1039318,CaMg5,0.0
mp-690485,DyMnO3,0.41339999999999977
mp-765742,Na3V5O10,0.5230000000000001
mp-676762,Yb(CeS2)2,0.0
mp-1079355,Nd(AsRh)2,0.0
mp-39215,Zn3GaB6PO12,4.0713
mp-28407,SBr2O,2.732
mp-1093652,In2GaSn,0.0
mp-555604,Na3Dy(Si2O5)3,4.5070000000000014
mp-767034,Fe(CoO2)2,0.006299999999999972
mp-999121,TbTlTe2,1.5328999999999997
mp-29227,TlV5S8,0.0
mp-767877,Li2Si4NiO10,3.8894
mp-767284,Li6VFeP2(CO7)2,2.6203000000000003
mp-4709,PrNbO4,3.7547
mp-979459,Sm5Mg,0.0
mp-22318,SrAl2,0.0
mp-1138,LiF,8.7161
mp-561495,Cs4CuSi2O7,0.7267000000000001
mp-683917,In4Cu9,0.0
mp-1095625,TmAsPd,0.0
mp-19025,LaMnO3,0.3842999999999997
mp-21892,Al2PbO4,3.9425
mp-860963,Ag2H4(SO4)3,2.8882
mp-1076674,Sr4Ca4Fe3Co5O24,0.0
mp-865304,Tm2CoRu,0.0
mp-769666,Li5Mn6O12,0.0