mpid,formula,gap pbe
mp-1016273,CsMg6Cd,0.0
mp-865696,HoGaRh2,0.0
mp-849388,V2O3F,0.0
mp-571291,Sr3(SnP2)2,0.9870999999999994
mp-1025626,Te4Mo2WSe2,0.057500000000000114
mp-20212,BaPr2CuO5,0.7520000000000002
mp-1072345,TmMgSn,0.0
mp-555147,SiO2,5.3615
mp-673156,Li2NbP4O13,0.4055
mp-777078,Li2VF6,2.3686
mp-169,C,0.0945999999999998
mp-820,HgSe,0.0
mp-1036222,YMg14NiO16,0.9627
mp-1020636,Zn2SiO4,2.6045
mp-1018053,InCu,0.0
mp-31928,LiMnP2O7,1.0887
mp-10623,ThSbRh,0.7443999999999997
mvc-708,Cr(WO4)2,1.1247
mp-762913,Li4Nb2Fe3Ni3O16,0.0
mp-744212,NiPH4ClO3,3.9714
mp-1039029,MgCd2,0.0
mp-775219,Cr3P6WO24,0.02259999999999998
mp-556291,Ba3Sn2S7,2.1916999999999995
mp-771746,Cr11Ni40Mo9,0.0
mp-6068,Sr2TbRuO6,0.3388
mp-1028342,Mg14AlCo,0.0
mp-554610,PrZr2F11,5.7572
mp-13119,CdO,0.0
mp-974337,RuPbO3,0.0
mp-18652,Sr3HoRhO6,2.1668
mp-16321,SrCuP,0.06059999999999999
mp-753763,Ce5Dy2O13,1.2663000000000002
mp-542115,Hg3Se3O10,1.9291
mp-773966,K2W3O10,1.3463
mp-19443,WO3,1.1455
mvc-12716,ZnCr2S5,0.0
mp-3467,SmB2Ru3,0.0
mp-976287,Li3Pb,0.0
mp-19200,Tb2Mo2O7,0.0
mvc-5738,Ca2NiWO6,3.2588000000000004
mp-754855,CaAsH5O6,3.5906
mp-1075987,La7SmTiV7O24,0.0
mp-1006258,ErPu3,0.0
mp-566527,Sn2WO5,2.4096
mp-9028,PrBN2,2.1062000000000003
mp-851001,Li3Mn2Cr2O8,0.0
mp-567590,LuOs2,0.0
mp-1066975,TmSi,0.0
mp-763146,Li4Ti2Co3Ni3O16,0.0
mp-505598,Zr(Ni2P)2,0.0
mp-600024,SiO2,5.75
mp-510568,V2O5,1.6982
mp-694906,Co(Bi3O5)4,1.1879
mvc-2876,Zn(SbO2)4,1.8436000000000003
mp-625318,Al(HO)3,5.0246
mp-560271,AlCuAsO5,0.4567999999999999
mp-1027110,Te2MoWS2,0.6397999999999997
mp-567514,Ce9Sb16Cl3,0.0
mp-1021330,Rb2Ge(S2O7)3,3.8051
mp-569402,VP,0.0
mp-761945,Li3V3P8O29,0.3427
mp-689931,V(PO3)4,1.7651
mp-777255,LiFeBO3,2.6311
mp-769111,Sc3Bi3O11,0.0
mp-1006882,CdC,0.0
mp-1030636,Mg3TiO4,0.0
mp-867120,TaMn2Al,0.0
mp-7166,Pr3TlC,0.0
mp-985564,InTc3,0.0
mp-757074,BaCa2I6,3.8624000000000014
mp-1027866,Mg14ZrB,0.0
mp-29537,Cl2O,1.0529000000000002
mp-684732,Co2S3,0.0
mp-32518,V2(PO4)3,1.0157
mp-768883,Sn2(SO4)3,0.0
mp-567224,Mg(SiB6)2,1.9315000000000009
mp-763842,Na3LiMnBPO7,2.4324000000000003
mp-779088,Li2MnV(PO4)3,1.0833
mvc-1130,BaCu4O7,0.0
mp-1077512,LaGeIr,0.0
mvc-3800,Mg2Sn2O5,1.5166999999999993
mp-631458,CaReBi,0.0
mp-735580,K9Mg3Nb5(PO5)8,0.35200000000000004
mp-763892,Li3Co2(GeO4)2,0.0676
mp-505774,V16O3,0.0009999999999994458
mp-11175,LiZnPS4,2.7311999999999994
mp-765533,NaV3O6,0.8350000000000004
mp-541846,P4O9,5.5643
mp-996960,AgNO2,1.4209999999999998
mp-23574,SbPCl8O,1.8685
mp-505208,CoSnH12(OF)6,1.0704
mp-33690,PrSO,1.9172
mp-568598,Cu2HgI4,0.29800000000000004
mp-570622,NaGa3Se5,1.5028
mp-849409,V4(OF3)3,1.2401
mp-775096,MnPHO5,0.8400999999999998
mp-1095786,Mn2GeW,0.0
mp-674493,In2NiS4,0.0
mp-31412,PrSnAu,0.0
mp-850511,LiFeO2,1.8933
mp-680058,InTeI7,1.734
mp-1033512,CsMg6BiO8,0.0
mp-540883,As2P2S7,2.6485000000000003
mp-770735,ZnCrO4,2.2854
mp-861869,CaLuRh2,0.0
mvc-11741,Ca(MnS2)4,0.0
mp-760109,Bi2(SO4)3,4.2334000000000005
mp-1033714,Mg14GaBO16,0.0
mp-765272,Li2V2OF5,0.7305999999999999
mp-867878,AlFe2Si,0.0
mp-27138,K2PdBr4,1.2049
mp-991346,CeBPt3,0.0
mp-773366,P2WO7,3.0944
mp-861257,Tb3SbO7,2.9632
mp-12901,Tb6FeSb2,0.0
mp-19327,LuNiO3,0.11350000000000016
mvc-10125,MgAg3P3O13,0.0
mp-772318,Li2Cr2O7,2.4929
mp-3098,AlCuO2,1.8148
mp-545598,UCdO4,1.9428
mp-570896,Tl2Pd,0.0
mp-780894,Na6Ni2P(CO4)4,0.0
mp-779207,Li6MnV3(PO4)6,0.6322999999999999
mp-780435,Li5Co2(PO4)3,2.7217
mp-1035561,Mg14FeSiO16,0.6551999999999998
mvc-3213,Sr2CrCuSO3,0.9866
mp-581987,Dy(Zn10Rh)2,0.0
mp-705485,NaCa5ScZn5(SiO3)12,4.3812
mp-624387,Bi2Te2W3O16,3.0739
mp-780644,Fe2O3F,0.0
mp-976722,MgPbO3,0.0
mp-776023,CdSiO3,2.5256
mp-1098841,HfMg30FeO32,0.0
mp-765628,Li4Cu3Bi(PO4)4,0.0
mvc-2863,MgCoO2,1.0034
mp-28194,BiClF8,2.0644
mp-675801,KNbCl6,2.1638
mp-8558,BaNpO3,0.0
mp-769119,YbScO2,0.0
mp-764243,VOF3,2.7763
mp-555952,Sb4RuC6(O3F11)2,4.4456
mp-630303,RhC2IO2,1.7793
mp-556544,LiAlSiO4,5.021
mp-569416,C,0.010999999999999677
mp-772701,Li3Fe(SbO3)4,0.0
mp-204,CeFe2,0.0
mp-1095793,ZnCdRh2,0.0
mp-1034792,Mg14CdNiO16,2.397
mp-580931,MgZn5,0.0
mp-753942,BaY3Br11,3.0403
mp-753581,LaUO4,0.0
mp-780479,LiV2P4(HO8)2,1.1173
mp-753375,Sr3Ir2O7,0.0
mp-762039,Fe2H4O2F5,1.4287
mp-571376,Dy4CdCo,0.0
mp-565766,CuWO3F2,0.7745
mp-565369,K4WS3O14,3.4321
mp-542879,Nd12Ni6Sn,0.0
mp-5948,Th(CuSi)2,0.0
mp-769394,Ba4Ta2O9,3.5999
mvc-2427,Ca2Ta2CuO8,0.5667
mp-32085,MoP2O7,1.4339
mp-752555,SrLa2O4,3.4421
mp-565637,NaFe3(PO4)3,0.4312
mp-1038333,HfMg30CO32,0.5180000000000007
mp-1097884,BeF2,6.255000000000001
mp-23025,LaClO,4.069
mp-17149,Sr3ErRhO6,2.192
mp-777508,Li5Mn8(BO3)8,0.2379
mp-761312,Li2Mn3CrO8,0.0
mp-755021,ReO3,0.0
mvc-11834,BaTlCuO4,0.0
mp-1029850,K15Cr7N19,0.6508
mp-774609,Na5Li3Ti5O14,3.1152999999999995
mp-1094592,LiMg,0.0
mp-774387,V4OF11,1.4979
mp-1078827,YSnRh,0.0
mp-1069613,Er2BiO2,0.0
mp-542884,Rb2BeH4(SO5)2,5.0725
mp-1097570,BeMoRu2,0.13050000000000006
mp-1035521,BaMg14FeO16,0.8242000000000003
mp-1035769,Mg14ZnBiO16,0.0
mp-761419,Li9Cr5(SiO8)2,2.8319000000000005
mp-1136,Na3As,0.09410000000000007
mp-558601,BaWO4,3.6521
mp-17236,Ba(Ni2B)6,0.0
mp-1094123,MoO2,0.6634000000000002
mvc-11266,Mg(CoS2)4,0.0
mp-15805,Mn3ZnN,0.0
mp-780532,Li2FeO2F,2.3033
mp-1087497,V5Se4,0.0
mp-1025383,TlPPt5,0.0
mp-972925,ScZn2Au,0.0
mp-1078503,LiTiNCl,0.0
mvc-10358,CaCu2(SnO4)2,0.5743
mp-865622,Li2HoIn,0.0
mp-989550,Rb2TlInCl6,2.3962
mp-605688,GdH6C6Cl3(O3F2)3,3.1337
mp-761458,Li4Nb3V3Cr2O16,0.2348999999999997
mp-1018064,ErFeC2,0.0
mp-27935,AlICl6,2.2636000000000003
mp-29536,Ag5CF4,1.9277
mp-1027647,MoWS4,1.2003
mp-762912,Ti3CoSn2(PO4)6,0.0
mp-767534,Na2CuPCO7,0.0
mp-15607,Ca(BC)2,0.0
mvc-12181,Ca(CoO2)4,0.31910000000000016
mp-983497,Pa3Zn,0.0
mp-697749,LiV2(PO4)3,1.4095
mp-977418,LiMgAu2,0.0
mp-774910,LiSb(TeO4)3,1.2243000000000004
mp-12620,NdSeF,0.9158
mp-771834,Tb3NbO7,0.0
mp-31526,CoHO2,1.9952000000000003
mp-752423,Na2TiO3,3.2114000000000003
mp-628859,KSrVO4,3.8426
mp-853193,Na6Mn2B4PO16,0.0
mp-605125,Rb4CeH12C3O17,0.2791
mp-1037458,SrMg30FeO32,3.903600000000001
mp-565932,CdTeMoO6,3.1894
mp-15572,Na3Ca3AlAs4,0.9449
mp-2642,CdAg,0.0
mp-631537,BeReB,0.0
mp-562102,K2S2O7,5.2193
mp-1079489,Zr2InAu2,0.0
mp-1028392,Mg14CoB,0.0
mp-765279,Li10CoNi9O20,0.4780000000000007
mp-677069,Tl3(V3S4)8,0.0
mp-980194,TiI,0.0
mp-976410,Nd3Cr,0.0
mp-767797,Li3Fe4(PO4)6,0.0
mp-1099214,CsMg14GaO16,0.0
mp-27923,TbCl,0.0
mp-568896,La(AlBr4)3,2.6083
mp-853137,Li2Si6Ni2O15,3.8407
mp-761365,Li4Mn5Cu3O16,0.0
mp-1026872,Mg14CuMo,0.0
mp-541836,CeTmS3,0.0008999999999996787
mp-978268,MgZn,0.0
mp-1099088,KMg14Co,0.0
mp-1079677,GdSi2Ni,0.0
mp-769253,Dy2SeO2,2.0746999999999995
mp-1032029,SrMg6ZnO8,2.2192
mp-19562,KMn6P7O24,3.6268
mp-572778,Cu3BiTe2ClO8,0.17360000000000042
mp-570483,V5Si3,0.0
mp-773181,Cr3WO8,0.4041999999999999
mp-1034059,Mg14TiBiO16,0.0
mp-20662,Sn4Pt,0.0
mp-30806,ZrNiSn,0.0
mp-3440,Li2(LuGe)3,0.0
mp-23264,TiI3,0.1604000000000001
mp-1031870,BaMg6NiO8,0.3815
mp-13967,Nb5(CuSi)4,0.0
mp-1025325,NpGa5Co,0.0
mp-1096307,Zr2FeRu,0.0
mp-1093711,BeSiTc2,0.0
mp-1025732,Te4Mo(WSe)2,0.3418999999999999
mp-700136,Fe(PO3)3,2.7831
mp-685607,CsTaSe3,0.2591000000000001
mp-18111,Ba2LaC3O9F,3.9314
mp-764517,Li3Fe8(BO3)8,1.2487
mp-33606,Ba(PrSe2)2,1.6190000000000002
mp-565335,GdMoClO4,2.4125
mp-866667,Li3AsH36(SeN3)4,1.8941
mp-1074331,Mg4Si3,0.0
mp-980005,AcYbRh2,0.0
mp-12355,Sr2YTaO6,3.845
mvc-2181,AlV4(CuO4)3,0.0
mp-570,NdTe,0.0
mp-1096423,Na2TlCd,0.0
mp-767341,Li2ScPCO7,4.4398
mp-1035613,LiMg14WO16,2.3137
mp-28726,KYF4,6.9097
mp-571539,CdI2,2.3609
mp-570170,Mo15Se19,0.0
mp-752402,BaSrI4,3.1007
mp-985571,LiAg(CO2)2,2.6889999999999996
mp-1018696,EuCdPb,0.0
mp-1026884,Mg14GaCu,0.0
mp-752410,Ba2GeO4,2.9627
mp-980049,Yb3Re,0.0
mp-1018159,ErSb2,0.0
mp-18712,Mg3Pd,0.0
mp-5327,Na4UO5,2.1446
mvc-149,Ba2Ca3Tl2Cr4O12,0.0
mp-25128,SrV6O11,0.0
mp-640597,Ce3(AgGe)4,0.0
mp-3901,NdNbO4,3.7197
mp-775710,LiCrPO4,1.9332000000000005
mp-762904,LiCoSiO4,1.2292999999999998
mp-759441,LiCu(PO3)2,1.4952
mp-628216,Cs2KMn(CN)6,0.0
mp-640566,Yb8Si11,0.0
mp-866074,NdMgAg2,0.0
mp-1026540,Mg14GaC,0.0
mp-568382,MnBi,0.0
mp-720199,Ca6La14Mg7Ti13O60,1.1974
mvc-10148,MgMn2P2O9,0.0
mp-977430,MgNbRu2,0.0
mp-989513,SrWN3,1.2675999999999998
mp-766673,Li4V3P8O29,0.8222
mp-768001,Li6Fe(SiO4)2,3.7361
mp-764285,VOF3,2.218
mp-544,Ti3Ir,0.0
mp-649033,Sr5(InSb3)2,0.053300000000000125
mp-760512,LiCuCO3,1.8629
mp-1033759,Mg14BWO16,0.3173000000000004
mp-1095524,Tm2In8Co,0.0
mp-556815,ZnS,2.0409
mp-762024,Li2FeCO5,0.03269999999999995
mp-1079407,NiPW,0.0
mp-22450,Li2PbO3,1.044
mp-707317,ErP4HO12,5.5546000000000015
mp-13456,ZnS,2.0687
mp-674503,Hg2SbF6,0.0
mp-4953,CdGeAs2,0.03100000000000014
mp-2553,HfBe2,0.0
mp-6825,Ho2Si4CN6,3.2067999999999994
mp-757862,K4Nb15O24,0.0
mp-580126,Sm3Ge5,0.0
mp-778574,V4(OF3)3,1.824
mp-540827,Ba2UFeO6,0.014499999999999956
mp-7891,Mg3As2,0.8711000000000002
mp-1021312,Mg6TiGa,0.0
mp-10453,Lu(SiRu)2,0.0
mp-19080,Na2Mn3O7,1.4148000000000005
mp-758916,Ga2P3H12(NO4)3,4.130699999999999
mp-1016620,Mg6CrBi,0.0
mp-972470,V2Cu3Pb(ClO4)2,0.0
mp-530331,Al6SnTe10,1.4355999999999995
mp-780102,Li2Mn3(BO3)3,0.09729999999999994
mp-767353,Li6CrCoP2(CO7)2,1.29
mvc-9012,LaMgFeSbO6,1.9064000000000003
mp-1093664,Sr2AgPb,0.0
mp-569595,PbI2,2.4080000000000004
mp-763134,V4(OF3)3,1.3695
mp-756035,LiTi4O8,0.0
mp-769153,Li2SbSO4F3,4.3691
mp-684725,KMgH5(SO5)2,0.3867
mp-1094542,ZrSn,0.0
mp-676650,Li6Br3N,2.0927
mp-29733,MgNiBi,0.0
mp-781078,Li3V2P4(HO8)2,0.9395000000000002
mp-565798,Ni5Te4(ClO6)2,2.9419999999999997
mp-972184,VPtO3,0.0
mp-862329,ScI2,0.0
mp-763747,LiFe(PO3)4,1.4224
mp-765699,Li3Fe(PO4)2,2.4323
mp-560824,La6B(NO2)3,1.0963000000000005
mp-989608,Cs2NaAsCl6,3.062
mp-1030738,NaMg6BO7,0.0
mp-12073,Ba(BIr)2,0.0
mp-755226,La2Tb2O7,0.0
mp-675691,Ni2RhS4,0.0
mp-18908,Sr2NiTeO6,2.1132000000000004
mp-1077783,TbNi2,0.0
mp-556661,Y2SiCO7,4.7772
mp-1097440,CaScRh2,0.0
mp-865385,V3Re,0.0
mp-1015076,CrN2,0.005300000000000082
mp-556246,La3Si2S8Cl,2.611800000000001
mvc-3068,Ba2Tl2Zn2Ni3O10,0.0
mp-560193,SnSe2(Cl4O)2,2.7633
mp-705426,Mn9(P2O7)8,0.4626
mp-1037618,RbMg30FeO32,2.1429
mp-318,SrIr2,0.0
mp-779477,Na2Ti2O5,3.8185
mp-753564,Sn3(OF)2,0.0
mp-1094606,Mg5Ga,0.0
mp-22888,CaBr2,4.5304
mp-1019609,Cs2Sr2Li3B3(PO4)6,5.6029
mp-12892,CaSi2,0.0
mvc-9192,CaNi3O7,0.0
mp-776952,Na2O,1.5089
mp-699485,AlH12(NO5)3,3.3708
mp-862676,LiHoIn2,0.0
mp-555840,K2PO4,3.2014
mp-766758,Li7Mn11O24,0.0
mp-31008,Na14Al4O13,2.4677
mp-974415,Re3Pb,0.0
mp-31083,PrSi2Ru,0.0
mp-3345,Cu3AsS4,0.0
mp-974445,Re3Ge,0.0
mvc-11658,Mg(FeO2)4,0.0
mp-570066,KZr6CCl15,1.1123
mp-1074613,Mg2Si,0.0
mp-760408,LiZnO2,0.0
mp-510764,Ni(WO4)2,0.006800000000000028
mp-1006372,AgSO4,0.0
mp-969,YbAl2,0.0
mp-707105,Li3B5(HO5)2,5.8854
mp-762687,LiFeSiO4,1.8255
mp-1013540,Ca3PN,0.0
mp-850213,Yb4Br6O,4.251799999999999
mp-1078394,Ba2LuBiO6,1.4445
mp-1903,BaAl4,0.0
mp-30517,Sr3Sn13Rh4,0.0
mp-1025033,LuInCo4,0.0
mp-850133,Fe10O9F11,0.9217000000000002
mp-773701,Na5LiMn2P2(CO7)2,3.369
mp-767515,Gd3AsO7,2.3103
mp-752405,Dy2SiO5,4.7218
mp-769510,Li5Ti4Co3O16,0.33640000000000003
mvc-13795,CaCoO2,1.4913000000000003
mp-1096698,ZnGeIr2,0.0
mp-6080,BaNd2CoS5,0.0
mp-764217,Li5VO4F,1.8622000000000003
mp-1094646,MgGa2,0.0
mp-759728,Sb7(O2F3)3,2.7587
mp-753306,YUO4,0.0
mp-762244,Li2AgF4,0.5475999999999999
mp-505284,Pb3(BrO)2,2.3882
mp-771410,Li2MnBO4,0.6277000000000001
mp-30134,Li8Al3Si5,0.0
mp-755525,TmTiO3,0.0
mp-7645,KAl(SO4)2,5.5292
mp-771367,Li24Ti7Cr5O36,1.2928000000000002
mp-541919,GdNiO3,0.04709999999999992
mp-868578,GaFeO3,2.1247
mp-640950,NaB9Se8,1.9422
mp-640052,Cs2AgBr3,2.9701
mp-1031710,Mg6CoBiO8,0.2773000000000003
mp-11487,LaPt3,0.0
mp-568719,SmInAg2,0.0
mp-24333,UH12(ClO2)3,0.5188000000000001
mp-704707,Cr2(MoO4)3,2.6785
mp-581734,Gd2Fe17,0.0
mp-694934,Li2TiFe(PO4)3,2.4993
mp-779127,Ti17(NO4)6,0.0
mp-1064933,S,0.0
mp-680718,Er(BO2)3,5.668000000000001
mp-1018164,PtC,0.0
mp-1098936,Mg30NbNiO32,0.4264999999999999
mp-763916,Li5Cr3FeO8,2.0458
mp-21319,Ce3TlC,0.0021999999999997573
mp-1093837,MnZn2Rh,0.0
mp-579107,Ag4Mo2Se3O16,1.6559
mp-541041,NdAg(PO3)4,3.7001
mp-652200,C2IO,2.0163
mp-566398,Al2(WO4)3,4.5634
mp-862693,BaNaH3Pd,1.4378000000000002
mp-978569,Sm(BRh)4,0.0
mp-773350,NaLi2MnPCO7,3.4936
mp-769427,Li5Fe6(BO3)6,0.7835000000000003
mp-582274,Ce(Ni5P2)2,0.0
mp-705743,Ta2MnO6,2.1806
mp-764152,Li2NiP2O7,3.4846000000000004
mp-24943,KFe(SO4)2,2.1743
mp-1075570,Mg5Si6,0.0
mp-1022493,Mg6ZrB,0.0
mp-776725,V3Cr3(SbO8)2,1.1325000000000005
mp-780169,Hf2N2O,1.1956999999999995
mp-1016845,ZrCdO3,0.0
mp-1096289,Sc2InHg,0.0
mp-770382,Li3V3(BO5)2,1.0475000000000003
mp-777529,Li2VF6,1.9224
mp-771510,Li7Fe3(WO8)2,0.0
mp-20479,SrIn4Ni,0.0
mp-8085,Mg3P2,1.3538
mp-1023920,Mg3NbO4,0.0
mp-10136,Ti2ReB2,0.0
mp-971634,NaNiO2,0.0
mp-569544,ZrTe,0.0
mp-639892,GdMn12,0.0
mp-973571,Lu,0.0
mp-8713,K2MnS2,1.0113
mp-1025410,LuU2S3O2,0.0
mp-22607,Zn(InSe2)2,0.9929
mp-768931,Ga10Si2O19,2.0817
mp-1029702,MgTiN2,0.6458000000000004
mp-866217,Gd2ZnRu,0.0
mp-567086,KV2CrO7,2.1199000000000003
mp-1028180,CaLaMg14,0.0
mp-865472,VSiTc2,0.0
mp-1028414,MoWSe4,0.9440999999999996
mp-770514,Li5MnO4,1.3683999999999998
mp-756086,Li5BiS4,1.5786000000000002
mp-1078190,Er2Cr2C3,0.0
mp-4622,Li2BeF4,7.597899999999999
mp-770848,Li2TiCo2O5,1.2580999999999998
mp-20202,MgSn4Ru,0.0
mp-975284,RbIrO3,0.0
mp-6788,La3Ga5SnO14,3.3050000000000006
mp-19340,LiVO2,1.8325000000000005
mp-555797,Zn4As2O9,1.62
mp-1029592,Li3YN2,2.0798
mp-720868,Ca2CdH24(ClO2)6,4.2418999999999984
mp-1031257,KMg6BO7,2.1175
mp-978855,Sn3B,0.0
mp-19125,Na4W(NO)2,1.9524
mp-4228,Nd(CoSi)2,0.0
mp-8001,LiAlO2,6.1183000000000005
mp-686526,NaCaAlSi2O7,3.9498
mp-1067744,YTlSe2,2.1811
mvc-16769,Y(CrS2)2,0.0
mp-6891,Sb2RuC6(OF2)6,4.7623
mp-759784,Li2Bi2P2O9,3.5427
mp-1009016,LuAs,0.0
mp-1099605,Sr2Ca2Fe(CoO4)3,0.0
mp-973896,Ni3I,0.0
mp-1099294,Mg6NiB,0.0
mp-769620,Li2VCrO4,1.9325
mp-773284,Li4Ni3TeO8,0.6478999999999999
mp-23451,Cs3Cr2Br9,1.3761
mp-571637,K2Cd2Te3,1.3224
mp-762697,Li3Cr4P2O8F9,2.4033
mp-863657,PmCl2,0.0
mp-20906,HoCoC,0.0
mp-768469,TmGaO3,2.9219999999999997
mp-29960,Ca(C2N3)2,4.552300000000002
mp-705295,LiNiP2O7,0.008000000000000007
mp-1097042,CrN2,0.049499999999999884
mp-571599,Ba(BiPd)2,0.0
mp-13171,YMgCu,0.0
mp-998147,TlCuCl3,0.0
mp-765873,LiV2F5,2.2602
mp-2863,CeCd3,0.0011999999999998678
mp-21183,Ba(InTe2)2,0.9628
mp-551758,AgClO4,2.3652
mp-30031,CaI2,3.8971
mp-756647,K2YPCO7,4.4412
mp-862658,LiCu3,0.0
mp-29906,Mn4Nb7Ge8,0.010699999999999932
mvc-9053,MgNi2(PO5)2,0.02400000000000001
mp-772241,Li3MnAl2O6,1.7656999999999998
mp-558332,K5Au(IO)2,1.8748
mp-612118,Kr,7.1816
mp-861951,LiTaRh2,0.0
mp-1035599,Mg14FeSiO16,0.0
mp-554552,Zn3P2H2O9,3.3726000000000003
mp-977204,NaTl2Sb,0.0
mp-13703,Al4CO4,3.8248
mp-861590,Li2VF6,1.9564
mp-29710,Hg4P2O7,1.5817
mp-1008891,Mn2Sb,0.0
mp-676036,Ba(FeS2)2,0.0
mp-1078627,NbCu3S4,1.6574
mp-773712,Li2TiCr3O8,0.03410000000000002
mp-1072865,HoSn2,0.0
mp-1030577,Te6Mo3WSe2,0.274
mp-768185,Ba4Li4Ti19O44,2.2457000000000003
mp-962059,SrMgSi,0.0
mp-12876,ThPS,0.0
mp-11228,YAl,0.0
mp-677549,Ca2Al2SiO7,3.2089000000000003
mp-977324,Ga3(Ni10B3)2,0.0
mvc-16102,Al5CuSe8,0.5140000000000002
mp-1096801,BaZrP2,0.10430000000000028
mp-15318,Rb2NaHoF6,6.5281
mp-776869,LiFeSbO4,1.0421
mvc-287,MgCuO2,0.0
mp-1095947,MgTlPd2,0.0
mp-1027551,Mo3W(SeS)4,0.6898
mp-505808,BaEr2CuO5,0.3683000000000001
mp-764359,CrOF,1.4246
mp-777503,TmCrO3,2.5329
mp-4818,Rb2Sb4S7,1.2221000000000002
mp-1096,CeS,0.0
mp-764280,Li2MnF4,4.013199999999999
mp-7025,RbTeAu,0.0
mp-14383,KGePO5,3.2291
mp-22461,Fe3Sn,0.01610000000000067
mp-27998,KNb3O8,2.4762
mp-849350,LiMn3(BO3)3,0.5445
mp-3354,Ho3(GePd)4,0.0
mp-680460,Rb2Cd2(SO4)3,2.5197
mp-867227,Li3Pt,0.0
mp-601867,Ba3(SnP2)2,0.8645999999999998
mp-561777,SmTiO3,0.0
mp-25686,LaCrHO5,2.5218000000000003
mp-557485,RbFeF4,2.9575000000000005
mp-540688,SrIn2O4,1.8083
mp-23858,H8PtN2(ClO)2,1.7313
mp-1096969,FeAgS2,0.0
mp-638690,Li2Y5In9,0.0
mp-761737,Li2MnCo3O8,0.0
mp-567492,Ce2WC2,0.0
mp-31635,Cr2P3O10,0.012399999999999968
mp-14780,Na6MnSe4,1.1340000000000001
mp-23167,TlCl,2.1809
mp-715923,WO3,1.131
mp-3093,ErB2Ru3,0.0
mp-12788,Nd3Au4,0.0
mp-29957,Zr5Te6,0.00509999999999966
mp-1382,Ce3S4,0.0
mp-25131,VCdO3,0.8123
mp-1017237,RbMg6Nb,0.0
mp-974943,HfZrTc2,0.0
mp-974606,ReH6CN3O4,3.6454
mp-1022646,YMg6W,0.0
mp-24824,MnH16C4(Br2N)2,2.7413
mp-30278,Ce3Ga4Cl,0.009999999999999787
mp-31717,LiCr2(PO4)3,0.006399999999999961
mp-774510,CrP2O7,0.6696000000000001
mvc-13117,CaLa2Ti2Cr2O12,0.5655000000000001
mp-570702,Sm2Cu4Sn5,0.0
mp-20739,DyGePt,0.05039999999999978
mp-19567,Li6Ca12Mo4N16O3,2.4805
mp-763152,Li4V3Co3(WO8)2,0.9783999999999996
mp-770698,Li2AlFeO4,2.9327000000000005
mp-864601,LiMg2Rh,0.0
mp-32123,LiMo2PO8,1.1496
mp-1093674,Mg2CuPt,0.0
mp-24884,Co2Si(P2O7)2,3.0178
mp-779239,Li3MnV(PO4)3,0.3245
mp-540635,BaSn(GeO3)3,2.7734
mp-1078746,Sr2FeH6,1.3108000000000002
mp-972536,Sm2TlAg,0.0
mvc-11142,CrF6,2.0818
mp-1093742,Hf2FeCu,0.0
mp-1070314,Eu(CdAs)2,0.0
mp-555866,K6Be4C6O19,4.8084
mp-1080200,CrN2,0.0
mp-15349,Li2GeO3,3.7465
mvc-15992,MnAlO3,0.0
mp-773137,KCaBi,0.8270000000000002
mp-22908,BiCl3,3.3547
mp-715461,CoO,2.2212000000000005
mp-757101,Li2Cu(Si2O5)2,0.7930999999999999
mp-772826,K2LiTi2(AsO5)2,0.0
mp-764712,Li2VF4,2.6486
mvc-4519,SiNiO4,0.0
mp-776627,Li3FeF6,3.9832
mp-15671,Re3B,0.0
mp-565412,Ba2Eu3Mn2(CuO6)2,0.0
mvc-273,Sr2Cu2SbO7,0.0
mp-20908,Ce(BC)2,0.007999999999999119
mp-27684,Tl4O3,1.0973000000000002
mp-24398,AlP(H2O3)2,5.408099999999999
mp-769614,Li4V3CrO8,1.8721
mp-1034854,BaMg14NiO16,0.8104000000000005
mp-578618,NaMoO2,2.4683
mp-625801,Sr(H8O5)2,3.8434
mp-999205,ScC,0.0
mp-17741,Sm2ReO5,0.7924999999999995
mp-867907,PuSi3,0.0
mp-763119,TiFe3Co2(PO4)6,0.0
mp-628766,Co2Si,0.0
mp-676259,La(Mo3Se4)2,0.0
mp-761430,Li7Mn11(Si3O16)2,0.28790000000000004
mp-768798,Li3Bi2(BO3)3,3.3562
mp-2558,SmMg,0.0
mp-555718,SrNiF6,1.6631
mp-760994,NaSbO3,1.9296
mp-23326,Ca4Cl6O,5.2239
mp-1094681,Mg5Bi,0.0
mp-23694,LiBH,0.0
mp-675105,TiNiO6,0.0
mp-24389,CaPH5O6,5.3416
mp-685168,BeF2,6.5396
mp-1097652,MgScCu2,0.07909999999999995
mp-684657,Pd7O8,0.0
mp-3667,P2S2O3,3.975
mp-667310,AlPO4,5.4284
mp-1021508,Ce(As3Ru)4,0.20690000000000008
mp-765263,LiVF5,1.9073
mp-1094803,CaMg,0.0
mvc-10081,CaFe2(PO4)2,3.6044
mp-20078,Pb2O3,1.0687000000000006
mp-570255,Pr(AlGa)2,0.0
mp-1097564,Zr2CoRe,0.2393000000000001
mp-1008924,DySb,0.0
mp-778654,Li4MnFe3(BO3)4,3.1594999999999995
mvc-1324,YMn3Se2ClO8,1.7861999999999996
mp-19158,Mn3WO6,2.1119000000000003
mp-1007685,InAgSe2,0.0
mp-37657,Ca3SiO5,2.9146
mp-989539,Rb2AlTlH6,0.7178
mp-22050,Hf2In5,0.03469999999999995
mp-862377,LiBe2Ir,0.0
mp-22742,EuSn2Ir,0.009699999999999598
mp-31510,NbCuTe2,0.0
mvc-5910,Mg2MoWO6,2.0027
mp-764556,Li5Fe7O3F13,0.6779000000000002
mp-541250,VSeO4,1.8886
mp-561682,Cs(MoS)3,0.0
mp-689934,Li2CrP2O7,3.6262
mp-1095254,EuMoO4,0.021300000000000097
mp-777311,VFe3Co2(PO4)6,0.0
mp-961699,NaMgP,0.0
mp-762254,Li3V5O12,1.1195999999999997
mp-35712,Mg(GaO2)2,2.8506
mp-569323,Cs3CoI5,0.7504000000000001
mp-849057,FeS,0.0
mp-1095253,ScGePt,0.0
mp-19071,Co2SiO4,0.8019999999999996
mp-674831,Cu2S,0.0
mp-1024054,Fe2SiS4,0.2066000000000008
mp-570093,DyZn2,0.0
mp-1000440,CrN,0.0
mp-11240,DyAu,0.0
mp-1028975,Te2MoWS2,0.0
mp-763622,Li2(CoO2)3,1.0537
mp-647533,Sb2O5,0.0
mp-7808,BaP3,0.5735000000000001
mp-1096129,La2HgRu,0.0
mp-771363,MnPO4,1.0529000000000002
mp-557958,Cs2KNiF6,0.0
mp-754237,LiTmO2,4.3152
mp-1029375,BaCN2,2.9529
mp-972049,Tb(AlC)3,0.0
mp-680331,CdHg3C6S6(N3Cl)2,2.0621
mp-768654,Cr7Ni20Mo3,0.0
mp-1035545,LiLaMg14O16,3.2131
mp-850743,Li8MnFe7(BO3)8,3.1002
mp-567185,SnHg6(As2Br3)2,1.3643
mp-581265,NiAs2S6N4(OF2)8,3.0584
mp-1098997,Mg14TiAlO16,0.0
mp-755217,Cs2BaO2,1.4555
mp-552008,DyBi2ClO4,1.3622
mp-554973,TlCuF3,0.0
mp-28392,Sr5(AlSb3)2,0.9150999999999998
mp-762295,K2Mn3V2(HO5)2,1.9512
mp-861625,LiZnAg2,0.0
mp-961697,ScGeAu,0.2804000000000002
mp-1026352,Te4Mo(WS)2,0.0
mp-759209,Ag2SnO3,0.0
mp-29197,La3Br6N,3.0575
mp-1095954,TiGeOs2,0.23370000000000024
mp-7844,Mg3As2,0.5453999999999999
mp-21952,Eu(In4Rh)2,0.00649999999999995
mp-679999,Re3(SeCl)7,1.5043
mp-505165,Sr4V3O10,0.04879999999999996
mp-555489,LiY6B3O14,4.665100000000002
mp-775615,Li4Ti3Mn4(CoO9)2,0.6986999999999997
mp-985705,CeAgAs2,0.0