mpid,formula,gap pbe
mp-761603,LiV(SiO3)2,2.1899
mp-762396,Li4Mn3Nb2Ni3O16,0.4386000000000001
mp-1029506,CaSiN2,2.1951
mp-763455,LiP4WO12,3.7305
mp-5226,K2SeO4,3.5912
mp-7787,HfSO,2.8690999999999995
mp-690987,Na7Al10Si14(AgO16)3,2.3088
mp-32,Ge,0.0
mvc-15834,CaNiF6,2.0974000000000004
mp-19209,LiAl(MoO4)2,3.6252
mp-566186,Sm2Mo2O7,0.0
mp-31330,NdInRh,0.0
mp-19907,In2Se3,0.0
mp-1029407,NaCrN2,0.0
mp-774434,CrP2O7,0.6848
mp-1078818,Mg2NiH2,0.0
mp-690584,Fe7(PO5)4,1.4438
mp-18863,PrCrO4,0.3141999999999998
mp-27657,Ca2B6O11,5.6389999999999985
mp-780685,Fe3O5F,0.0
mp-28458,ErSeI,2.309
mp-27626,Ge19(AsI)4,1.0131
mp-570339,Tl4CdI6,2.1721
mp-974063,HoScRu2,0.0
mp-677191,BaLaZnRuO6,0.4316000000000004
mp-560219,K4Sb2N3O9F7,2.9160000000000004
mp-774942,Li2V3CuO8,0.5696000000000003
mp-1076812,K2Na2Nb(WO4)3,0.0
mp-753721,GdOF,3.3035
mp-30127,Rb3B7O12,4.4829
mp-763762,NiCO4,0.5480999999999998
mp-861508,Pr2ZnIr,0.0
mp-771993,LiZn2Fe9O16,1.5147
mp-19349,NaMn(SiO3)2,1.0161999999999995
mp-626725,Ba(HO)2,4.3643
mp-92,Si,0.0
mp-183,CeCd,0.0
mp-11944,LiYbGe2,0.0
mp-25181,Er2WO6,3.8181
mvc-10626,BaCaFeF7,3.8826
mp-720765,H3SNO4,5.0588
mp-565865,Mo4O11,0.1898
mp-772916,Ba3(LaI6)2,2.4533000000000005
mp-12712,Zr3Pd4,0.0
mp-567568,SrCa2WN4,2.6190999999999995
mp-1062030,TiS2,0.05109999999999998
mp-1074412,Mg4Si3,0.0
mp-763731,LiV3F10,1.7053
mp-1029016,Te2MoW3(SeS2)2,0.0
mp-3804,Sr(PRu)2,0.0
mp-766927,Li4MnO2F3,2.1618
mp-4233,KMnSb,0.0
mp-560297,LiTaSiO5,3.7965
mp-771275,Li4V(TeO4)3,0.0
mp-866002,YbTl2Cd,0.0
mvc-16368,CaCu(GeO3)2,0.0
mp-972205,V2MoOs,0.0
mp-775617,Li4Ti2Nb3Ni3O16,0.0
mp-571071,HoSi2Rh3,0.0
mp-862892,PmCdHg2,0.0
mvc-15550,V(ZnN)2,0.02619999999999933
mp-23140,AgHgSI,1.3584
mp-1016153,KMn8O16,0.0
mvc-3959,Zn2AgSbO6,0.07520000000000016
mvc-2063,Ca2Sn9O13,0.0
mp-770754,Ho(ClO4)3,5.7915
mp-775852,Li4Sb2C4SO16,2.5506
mp-8346,Lu2Ge2O7,3.7065
mp-753429,Li4Bi2S7,0.9159999999999999
mp-761698,Mn3CoO8,0.2109
mp-1096216,MgMnIr2,0.0
mp-675380,Nb15IrS32,0.0
mp-36912,Pr2CdS4,1.6469999999999998
mp-1027948,Mg14FeSn,0.0
mp-568861,CsAuN12,1.4521000000000002
mp-989605,Cs2RbInF6,5.3728
mp-10852,La(BC)2,0.0
mp-31234,Ca4As7Ir8,0.0
mvc-11253,Ca(CrS2)2,1.1302
mp-19638,KSrVO4,3.8583
mp-571638,Rb2Cu(BrCl)2,0.12799999999999995
mp-25019,DyMnO3,0.12539999999999996
mp-827,KN3,4.1559
mvc-13255,Y4V6O21,0.2957000000000001
mp-570130,AlH3,3.1866
mp-680836,Ta4Te9I4O,0.38119999999999976
mp-1019239,PdN2,0.0
mp-698587,TiNiO3,1.7081999999999995
mp-641415,PbWO4,3.0288
mp-767617,LiVF4,2.3609
mp-4199,Na2S2O3,4.0606
mp-6425,Li3In2(PO4)3,3.7684
mp-985584,Na3PS4,2.2776
mp-7144,Sm3AlC,0.0
mp-608662,Na3FeS3,0.0
mp-769705,Cd(CoO2)2,0.3248000000000002
mp-557028,Sr2LaTa3O11,3.0179
mp-1096439,LiZn2Ru,0.03949999999999987
mp-643029,NiSeO3,3.0748
mp-1034664,CeMg14BO16,0.0
mp-849512,Na7V2O6,0.5724999999999998
mp-557993,BiO2,1.1596000000000002
mp-760679,Cu3OF5,0.0
mp-743974,MnH12C2NCl3O2,3.9672
mp-4527,Li8SnO6,3.813400000000001
mvc-5144,Zn3Fe2(GeO4)3,2.6753
mp-1093553,Al2OsPt,0.0
mp-996973,CuHgO2,0.0
mp-1098011,LiB2O3,0.8525
mp-1096755,Sr2LiRh,0.11160000000000014
mp-1028948,TeMoWSe2S,0.0
mp-24413,Na2LiAlH6,2.8483
mp-881,NpSn3,0.040000000000000924
mp-640899,Ce2Zn2Cu5,0.0
mp-25103,K2NiPb(NO2)6,1.84
mp-624218,P3SN4Cl5O,2.6121000000000003
mp-11480,MnSnIr,0.0
mp-971827,Zn2CuPt,0.0
mp-561660,CeTaO4,0.0
mp-1030289,TeMoWSeS2,0.0
mp-768943,Sn2(SO4)3,0.0
mp-605088,GaH19C8,3.5580000000000003
mp-15697,Sr2As,0.0
mp-14941,Al2Pb3F12,5.2252
mp-540242,LiMnP2O7,1.5646999999999998
mp-27888,Zr3GeO8,3.8969
mp-12558,LiMgAs,0.0
mp-568525,Sr2SnSe5,0.9079999999999999
mp-776281,Zr2N2O,1.5861
mp-655275,HgC2(SN)2,2.1419
mp-623134,ZrInCu2,0.0
mp-745115,NaFe9Si6B3H2O31,0.8508
mp-3732,Ti2CS,0.0
mp-7921,MgPdF6,1.8285
mp-771417,Na2CoSiCO7,0.15629999999999988
mp-1008925,LiFeP,0.0
mp-857343,Ge7H8N2O15,2.7924
mp-1094444,YMg2,0.0
mp-1074240,Mg4Si7,0.0
mp-2490,GaP,1.5928
mp-1071252,LaGa2Rh3,0.0
mp-770319,Li5Mn2P2(CO7)2,0.0
mp-763754,K2CoP4(HO2)8,3.2667
mp-555487,SnO2,0.8384
mp-558658,Y2C(NO)2,3.9362
mp-1035990,KYMg14O16,2.3111
mp-572822,TiO2,1.6966
mp-556310,LiAlS3(Cl2O3)2,2.2856
mvc-10960,MgVBiO5,3.1101
mp-1098689,LiMg30MnO32,1.0128000000000004
mp-695113,P4H35C4(NO)16,0.0
mp-2077,DyMg,0.0
mp-1031369,LiMg6TiO8,0.0
mp-991385,Mn2Au,0.0
mp-558707,K2UAs2O9,2.4232
mp-1003765,Mn2HO4,0.11140000000000017
mp-14630,Y3Si3O10F,5.1402
mp-555522,EuPH5CO7,0.0
mp-1096847,BaCu2(AgO2)2,0.0
mp-28455,Hg2P2O7,1.7320000000000002
mp-1033432,BaMg6CO8,0.0
mp-779924,Li6FeO4F,2.7084
mp-5496,Al5C3N,1.4427000000000003
mp-706976,PH4N(OF)2,5.1708
mp-705403,LiCr6P7O24,2.2810999999999995
mvc-3291,MgNiPO5,0.05399999999999983
mp-9095,Tb2Si3,0.0
mp-752906,Ba4Pb3O10,0.0
mp-973625,Lu2AlTc,0.0
mp-11250,Mg2Au,0.0
mp-16486,Ce(Al2Fe)4,0.013300000000000093
mp-754645,MgCl2O,2.5919
mp-1074830,Mg7Si4,0.0
mp-769019,Li(BiO2)2,0.0
mp-13451,Dy2Sb5,0.0
mp-505185,Na2H16O9,4.533799999999999
mp-780108,Co2O3F,0.0
mp-1021292,KMg6Cd,0.0
mp-771086,Li3Ti(CoO2)4,0.08919999999999995
mp-540773,Ca2GeS4,2.5134
mp-989512,LiTl2InCl6,2.8728
mp-1094643,MgGa,0.0
mp-557505,KUP3O11,2.3388
mp-570777,SrSi,0.0
mp-1079450,CoTe(PbO3)2,1.6229000000000005
mp-8557,BaPaO3,0.032700000000000166
mp-976784,NiAu3,0.0
mvc-16246,Al2Fe3(SiO4)3,3.641399999999999
mp-1096415,HfScTc2,0.1504000000000003
mp-31455,VSbRu,0.2161
mp-540520,Li7Fe4P9O32,2.5988
mp-976221,K3Sm,0.0
mp-1087486,PbS,1.2228999999999997
mp-1095812,LaZnHg2,0.0
mp-772850,La2Hf2O7,4.2506
mp-613620,Rh2O3,0.5675999999999997
mp-762482,Li2Cr3O6,0.5035000000000001
mp-778751,Mn6O5F7,0.0
mp-695390,Na13Zr7Si5P7O48,3.7251
mp-20215,LaS,0.0
mp-1030534,Te2MoWSeS,0.005199999999999871
mp-779312,Li2Mn(BO3)2,0.6614000000000002
mp-600535,Mo12PH24C6N3O40,2.3325
mp-22689,ZrSnPd,0.028599999999999962
mp-13432,Tb2AlCo2,0.0
mp-676309,Sr11Ru10O33,0.0
mp-775068,Li4Nb3Fe3(NiO8)2,0.5108000000000001
mp-34903,MgGeP2,1.4962
mp-865979,AcMgCd2,0.0
mp-979261,TiPd,0.0
mp-781079,Li3Mn4(BO3)4,0.2981999999999998
mp-975031,RbBeH3,3.3379
mp-21159,DyGe3,0.0
mp-973004,ScRu3,0.0
mp-16280,Ca2Sb2O7,1.7338000000000005
mp-778416,Na3FeO4,0.4407000000000001
mp-29129,K2Te2O5,3.4292000000000007
mp-677733,K2TiAl(PO4)3,2.8995
mp-1022174,SrMg6Cu,0.0
mp-1075045,Mg3Si4,0.0
mp-21701,UFe5Sn,0.002299999999999969
mp-696129,Li10Si(PS6)2,2.3831
mp-571505,Rb2In3,0.0
mp-566234,Sr5Cr3ClO12,1.0435
mp-545825,NaIO3,0.0
mp-772997,Li8Ti7Nb6O30,0.0
mp-637965,Gd(FeGe)2,0.0
mp-865689,Y11In9Ni4,0.0
mp-583234,Bi4I,0.0
mp-1099224,CsMg6WO8,0.0
mp-768139,Li8Sb2S,1.5898
mp-770395,K2LiFeO3,2.0402
mp-565815,MnSiO3,2.6466
mp-28896,CuBIr,0.0
mp-30123,Hg2SeO5,0.7264
mp-3852,Tb3(CuGe)4,0.0
mp-705635,Na3CaAl3Si3CO15,1.148
mp-761671,Li3CoPO5,0.0
mp-20665,CeInCu,0.0
mp-753623,Li2Cu4S3,0.6691000000000003
mp-23996,BeH8SO8,5.4388
mp-29066,Al3Fe2Si3,0.0
mp-862263,DyAlAg2,0.0
mp-706245,Ca3La5Mn6(CuO12)2,0.0
mp-38994,NaAlSi4,0.0
mp-561258,ZnS,2.0288
mp-770073,EuY2O4,0.5175999999999998
mp-542783,Ba2H14C4O15,3.5253
mp-570428,Sc3In,0.0
mp-570050,Yb2Sn,0.0
mp-9563,Li2Sb,0.0
mp-1094725,MgSn3,0.0
mp-626046,H7NO6,3.2664
mp-504898,Nb2Pd3Se8,0.4910000000000001
mp-35612,PuOF,0.014499999999999956
mp-977225,LaNd3,0.0
mp-1038171,Mg30MnNiO32,2.6417
mp-764420,Mn4TeO8,0.20089999999999986
mp-1017436,Mg6NbSi,0.0
mvc-16223,YCr3O6,1.5385999999999995
mp-1078012,Cr3Te4,0.0
mp-1112,CeCo2,0.0
mp-764877,Co3(O2F)2,0.0
mp-755572,EuNbO3,0.0
mp-776009,Ti3CoCu2(PO4)6,0.0
mp-771268,Li4TiCrO6,1.3111
mp-15786,KHoS2,2.3505000000000003
mp-626819,ReH3O5,3.8311
mp-851046,Fe2O3F,0.0
mp-22942,BaBiO3,0.0
mp-764605,Mn12O5F19,0.0
mvc-6401,MgCr2O4,2.0718
mp-1002569,MgMnO2,0.7773000000000003
mp-765904,Li2FeSiO4,3.0781
mp-867934,KF3,0.6421000000000001
mp-559803,AgBO2,1.1604
mp-773003,Er2P4O13,5.3688
mp-1005829,Sm2Mn12P7,0.0
mp-1091372,NdAl3,0.0
mp-769690,LiFeBO3,3.242
mp-1026465,Mg14SbC,0.0
mp-1026927,Mo3W(SeS)4,0.6504999999999996
mp-1026578,BaMg14Ga,0.0
mp-8455,CsF,6.2651
mp-25090,La2NiO4,1.9206999999999992
mp-1080773,Pr(AsRh)2,0.0
mp-1075496,Mg5Si6,0.0
mp-19976,Ce4S3O4,0.0025999999999992696
mp-557533,Cs2TlVF6,0.0
mp-867268,K4P2PdS8,1.7116
mvc-12236,ZnNi(PO3)4,4.5028
mp-542700,RuC4(O2F3)2,0.016199999999999992
mp-1097259,ZnCrRh2,0.0
mp-715,ZrIr2,0.02009999999999934
mp-8951,SmAsPd,0.0
mp-31403,Al39Fe7Cu24,0.02890000000000015
mp-642810,HOF,3.1321
mp-24987,Fe4Ni3(PO4)6,2.1474
mp-1022458,Mg6ZrCd,0.0
mp-19431,LiYMo3O8,1.4300999999999997
mvc-368,Zn(Cu2O3)2,0.0
mp-763542,Li3Ni2(CO3)4,0.0181
mp-776649,Li3Y(NiO3)2,0.0
mp-864748,Gd2MgIn,0.0
mp-756494,Na3GePCO7,4.187900000000001
mp-1018080,CrCo2Bi,0.0
mp-22876,CsI3,1.8986
mp-677039,Li5TiAs3,0.7147000000000001
mp-704952,Cs4U3Mo3O20,2.0623
mp-1099178,YMg14NbO16,0.0
mvc-8631,MgFe(GeO3)2,1.3822
mp-1097315,Zr2OsPd,0.0
mp-29411,Na2B2S5,2.5898
mp-27198,Cd(NO3)2,3.4581
mp-1087228,Er2NiAs2,0.0
mp-771744,Li3FeBPO7,2.3324
mp-1078367,InNi2SbO6,1.2775999999999996
mp-565584,WXeOF6,3.1180000000000003
mp-781049,V4OF11,1.4506
mp-4990,MnSnRh2,0.013700000000000044
mp-763476,FeOF,0.35089999999999977
mp-771391,Mn5Sb3O16,0.0
mp-504919,CrH9(CN2)3,1.9983
mp-764617,LiFe4(BO3)4,1.5443
mp-18690,SmF3,5.4407000000000005
mp-570156,Zr3Al3C5,0.0
mp-1018124,Ti2Rh,0.0
mp-10748,TaCu3S4,1.9231000000000005
mp-5347,KAlF4,6.7863000000000016
mp-760425,Tb2Zr2O7,2.7126
mp-5749,Cr2FeSe4,0.0008999999999996787
mp-570531,NbP2NCl12,2.4276
mp-767955,Li3Fe2(NiO4)2,0.0
mp-762566,Li2FeSiO4,2.9645
mp-22642,Zr2Se,0.0
mp-775260,Li6CoCu3(PO4)4,0.0
mp-995198,CO2,4.2235
mp-744193,Ca2CrH2I2O11,2.9479
mp-495,LuGa3,0.0
mp-9410,C3N4,3.775
mp-1035459,Mg14FeCO16,0.09830000000000004
mp-631424,ReW2Br,0.0
mp-972327,Zr2CoOs,0.0
mp-21144,TbCoGe,0.0118999999999998
mp-614502,Gd,0.0
mp-764614,Li5Fe8(BO3)8,1.2200000000000002
mp-625377,HNO,3.4135
mp-1030373,Te6Mo3WS2,0.01670000000000016
mvc-4429,CaBi2O5,0.0
mp-677392,Yb2Ce8O19,0.0
mp-23541,KSn2Br5,2.3618
mp-5844,CaSiO3,3.8804000000000007
mp-21351,Dy2In,0.0
mp-662575,Sr2EuGaCu2O7,0.0
mp-607464,Re2Cl5O4,0.6223000000000001
mp-7531,Ca4Al6O13,3.9418
mp-571540,ZnCl2,4.0185
mp-766058,Na(Fe2O3)4,0.2905000000000002
mp-1097581,CdCuPd2,0.2132000000000005
mp-27854,TaCl4F,3.0922
mp-1094226,Zr4Sn3,0.0
mp-608254,SmClF,0.0
mp-10733,Sm2O3,3.9244
mp-756350,TiNbO4,0.0
mp-554899,CsAlF4,6.9718
mp-683982,RuOF4,0.29800000000000004
mvc-11791,Al2(BiO3)3,0.0
mp-554584,Rb3NaPbO4,1.6142999999999998
mp-504532,As2W2O11,3.3384
mp-30967,Tb12Co7,0.0
mp-29342,Ca3PCl3,1.8419000000000003
mp-18938,Tl2MoO4,3.4611
mp-761323,Co6O5F7,0.0
mp-867131,SmMgCd2,0.0
mp-770585,Li2TiCo3(PO4)6,0.0
mp-772991,Er2Bi2O7,0.3730000000000002
mp-1078896,Mn2Ga2S5,0.0
mp-28878,RbTe6,0.0
mp-7239,PrMgGa,0.0
mvc-12902,Mg(FeO2)2,1.8012
mp-865165,HfScCo2,0.0
mp-675535,La2SnSb4,0.0
mp-1018821,NdTlZn,0.0
mp-769729,Li5Fe2Co3O10,0.8073999999999999
mp-530018,Ta27S50,0.009400000000000295
mvc-2262,Cu5O7,0.0
mvc-2270,Ca2Mn9O13,0.0
mp-541090,Ce(SeO3)2,1.2671
mp-753955,K3H8RhC4(ClO6)2,2.1421
mp-1079080,CsCd4As3,0.21619999999999973
mp-2880,LuB2Os3,0.0
mp-649601,RuXeF11,0.30500000000000016
mp-912,LaPt2,0.0
mp-1096620,Cd2PdPt,0.0
mp-556346,Pr(IO3)3,3.3438000000000003
mp-769287,Li2TiS2O,2.2463
mp-917359,FeCu2GeS4,0.0
mp-530480,Li19(FeAs)20,0.0007000000000001452
mp-555309,CS4N2(OF)3,1.3596
mp-556065,Li2MoF6,2.2737
mp-639736,Rb,0.0
mp-779183,LiMnF3,3.4757
mp-631696,Ca2CoW,0.0
mp-1077459,YbTe2,0.0
mp-1074835,Mg7Si4,0.0
mp-1076170,Sr3CaTi3MnO10,0.0
mp-12829,LiCaGaF6,6.4003
mvc-15308,Ca2CrN2,0.0
mvc-3740,CaVF5,2.4541000000000004
mp-774350,Mn6OF11,1.1909
mp-1035930,RbYMg14O16,0.9238999999999996
mvc-4646,Ca(BiO2)2,1.8612
mp-771385,Na3MnPCO7,3.2776
mp-977424,Yb2ZnPb,0.0
mp-763661,Fe2C2O7,2.1609
mp-832,HoPd,0.0
mp-567025,K2Mo2H8O15,2.4415
mp-863906,LiNi4(PO4)3,0.005599999999999827
mp-772817,Ba4Y2Cu5O14,0.0
mp-1039623,RbMg30SbO32,1.5828999999999995
mvc-10429,BaTaF7,3.9804
mp-25225,Ba2(CuO2)3,0.0
mp-24846,Sr3Co2Cl2O5,0.05220000000000002
mp-763163,Li4Fe3Co2Cu3O16,0.0
mp-558160,NaYCO3F2,5.2379
mp-23942,KPHNO2,5.2353000000000005
mp-31738,Cr(PO3)3,2.9853
mp-567338,Pr(SiPt)2,0.0
mp-774710,Ba14Y7(Cu10O21)2,0.0
mp-1780,ScRh,0.0
mp-770355,Li4Cr3CoO8,0.0
mp-27290,Sb2XeF14,1.943
mp-757076,SnP2O7,3.8735
mp-504874,YB7Mo3,0.0
mp-764676,MnOF,0.0
mp-571501,Pr13Zn58,0.0
mp-1095850,LiSc2Ga,0.13890000000000002
mp-1017456,SrMg6Si,0.0
mp-769871,Li2CrFe3O8,0.0
mp-763977,Na6NiO4,1.4289999999999998
mp-8436,Ta2PdSe6,0.0
mp-31698,CrP2O7,0.5275
mp-10183,MgSbPd,0.0
mp-765204,LiMn2F7,0.4005
mp-10274,Er3GaC,0.0
mp-772421,KLi2FeO3,2.033
mp-99,Er,0.0
mp-674366,Tl3SiF7,3.6852
mvc-5268,SbAsO5,0.9217
mp-704504,YbMn2O5,0.0
mp-657336,MgSiO3,2.4376
mp-1030337,Te6Mo3WS2,0.009300000000000086
mp-30337,Al5W,0.0
mp-773308,Li2MnCrO4,0.0
mp-769706,Li2FeNi(PO4)2,3.0535
mp-8175,KTlO2,0.8835999999999999
mp-763730,Li2VPO4F,2.4724
mp-20801,LiIn2Pd,0.0
mp-507,SiNi2,0.0
mp-757001,Y15TmO24,4.0577000000000005
mp-865877,Ti2RePt,0.0
mp-685941,In4SbTe3,0.0
mp-863766,Fe32O35,0.6813000000000002
mp-1037450,Mg30ZnCdO32,3.643
mp-865104,KMo6S7,0.0
mp-269,TmC2,0.0
mp-756553,Li5Cu3(SbO5)2,0.02160000000000029
mp-1019527,Ba3Y2(B2O5)3,4.5196000000000005
mp-1019746,K2Ca4Si8O21,4.5791
mp-1093755,CaCd2Ag,0.0
mp-9191,Na3SbTe3,1.4544999999999997
mp-10533,YCuS2,1.5946999999999996
mp-772476,Na2CrSiCO7,0.8636000000000001
mp-758070,LiCu2PO4,0.31989999999999963
mp-1078168,In2CuSe4,0.0
mp-676227,Nd2Th2O7,2.6771
mp-776996,Li2CoSnO4,1.0167000000000002
mp-1077797,LaGePt,0.0
mp-9956,AlCr2C,0.0
mp-31148,BaZnSn,0.04300000000000015
mp-775562,Na3Ni2P2(CO7)2,0.0
mp-707284,H24PdC8(NCl2)2,1.8282
mp-676725,Lu3NbO7,2.0954
mp-1025768,Te2MoW2(SeS)2,0.0
mvc-9197,MgTiCr(PO4)3,2.3987000000000003
mp-778919,LiFePH2O5,3.2717
mp-1034738,SrMg14NiO16,2.5464
mp-989533,NaTl2InF6,4.2708
mp-541813,RbMgF3,6.6647
mp-11562,TbRh5,0.0
mp-736,Li3P,0.6996000000000002
mp-1095573,NbCoSi,0.0
mp-25051,NdMnO3,0.07969999999999987
mp-766454,TiO2,2.0938
mp-699691,Mn7SbAsO12,0.0
mp-1072744,Hf2Bi,0.0
mp-565716,Ca3Fe2(SeO3)6,2.3711
mp-19589,Mn6AgP7O24,2.4581
mp-22794,TmGeRh,0.0
mp-545379,InBiO3,0.04959999999999986
mp-30361,Zn8Ag5,0.0
mp-11557,ScRe2,0.08110000000000017
mp-685120,Al2Se3,1.1228000000000002
mp-1016603,Mg6CrCd,0.0
mvc-4269,Zn3Ge3(BiO6)2,1.7311
mp-1098816,Mg30FeBO32,0.3803999999999999
mp-760814,LiCuF3,0.0
mp-769875,Li4CrF6,3.0117
mp-759169,Li2CuF6,0.0
mp-557158,CrMoF6,2.5916
mp-1025370,InSiPt5,0.0
mp-763878,LiMn2O2F3,0.0
mp-29883,Rb3PbCl5,4.2828
mp-1098459,Mg30CrSiO32,1.7906999999999993
mp-752446,RbNO3,2.9593
mvc-8277,ZnFeNiP2O9,0.2018
mp-999296,Pd3N,0.0
mp-761190,LiCu(PO3)3,0.4722
mp-504399,Li7V4P9O32,2.2177
mp-27603,Ho6(Ga3Co)7,0.005199999999999427
mp-777190,NaLi3Ti2Cr2(PO4)6,2.8234000000000004
mp-1025252,Cs2MnCl4,1.7830000000000001
mvc-10962,CaCr4O8,0.0
mp-1036736,Mg30VSiO32,2.051
mp-1096385,Na2HgTe,0.06409999999999982
mp-698410,MnGe4H24C8(S5N)2,1.4138000000000002
mp-556979,CsSmGeS4,2.4631
mp-616240,K2PtC4(SN)4,0.10299999999999998
mp-733854,K2In2P2HO10,0.13490000000000013
mp-777475,Li3FeF6,4.0089999999999995
mp-674513,Dy3TaO7,2.0598000000000005
mp-8900,K2VAgS4,1.3452
mp-1080784,LiHoSn2,0.0
mp-769763,Li5Cu(HO2)2,2.7186
mp-757870,Li2Cu2(Si2O5)3,0.02610000000000001
mp-867344,Er2NiOs,0.0
mp-23219,CuBr2,0.0
mp-22997,PbBrCl,3.5382
mp-1095787,ScAgPd2,0.02039999999999997
mp-10194,LuSbPt,0.0
mp-561781,Ba2Nd2Co4O11,0.0
mp-773118,Ba6Li2Ta9Ti7O42,0.0
mp-1080438,SrAgTeF,1.2797999999999998
mp-1016904,VCdO3,0.0
mp-1101027,Tl3(V3S4)8,0.0116000000000005
mp-569848,LuInPt,0.0
mp-769159,LiCuPH2O5,0.0
mp-775837,Sc2O3,4.1645
mp-643570,NiH2SO5,3.4276
mp-556986,Er2B2Cl2O5,5.0806
mvc-9044,LaZnFeBiO6,0.0
mp-600038,SiO2,5.4989
mp-1075483,Mg5Si6,0.0
mp-566089,Na5Fe3F14,3.2652
mp-767791,Mg5Co19O32,0.02059999999999995
mp-608382,KMnF3,3.138
mp-1016585,Mg6NbB,0.0
mp-28302,K4CdP2,0.8246
mp-557457,TmSeO3F,4.2903
mvc-1038,BaCr4O8,0.0
mp-643895,Cs3MgH5,2.5844
mp-984586,Nb4Co4Si7,0.0
mp-766434,SnP2O7,3.7447
mp-1079088,NaAsF6,5.114
mp-765670,Na4Ni3O7,0.0
mp-991976,NbCo2Sn,0.0
mp-531163,Nd12Zr12O37,0.00020000000000042206
mp-853246,Li2Fe5F17,2.9095
mp-21066,TaMnP,0.0
mp-774095,Li2Mn2CuO6,0.2347000000000001
mp-777506,V3(O2F)2,0.0
mp-27630,CrCl3,1.5067
mp-21229,Eu(SiAu)2,0.003899999999999793
mp-625909,Ba(H2O3)2,2.7803
mp-862853,PaP3,0.0
mp-767881,Li3MnPCO7,3.4172
mvc-1300,Ba2AlV3O7,0.0
mp-776680,TiMn2Ni3(PO4)6,0.0
mvc-9008,LaMgFeCoO6,0.7493999999999996
mp-34326,Li6Br3N,2.2169
mp-5313,HoCo3B2,0.0
mp-559059,K3Nd(AsS4)2,1.6896
mp-14127,La2Fe14C,0.004599999999999938
mp-566054,FeN3ClO3,0.5022
mp-2599,NdN,0.0
mp-973155,Ge3C,0.0
mp-675834,La3O2F5,3.5752000000000006
mp-975184,NdMgTl2,0.0
mp-567440,Ho2Si3Rh,0.0
mp-31000,NO,0.1088
mp-744896,PuCoH24C4N6O13,0.5439
mp-1067644,PdN,0.0
mp-863669,Pm2CuPt,0.0
mp-557385,K4Ru(NO2)6,2.3638
mp-649676,CaSiO3,2.9075
mp-565380,BaYMn2O6,0.0
mp-779908,Na2FeO3,0.2353000000000001
mp-11021,GaAuO2,0.3193000000000001
mp-1027170,Te2MoWSeS,0.19500000000000028
mvc-14043,AlNiO3,0.0
mp-567160,Na4U(MoO4)4,0.006299999999999972
mp-621825,Y6Pb8OF32,4.0785
mp-22756,K2PbO3,1.2096
mvc-13350,Cu2GeS4,0.0
mp-560411,CdSb6(S2I)4,1.5565000000000002
mp-27493,Sn3(PO4)2,3.5213
mp-973534,FeRe,0.0
mvc-16765,Al(CoS2)2,0.0
mp-1099176,YMg14CrO16,0.0
mp-780007,Fe3(O2F)2,0.0
mp-1016359,SrMg6Bi,0.0
mp-33449,Tb5AgS8,1.7047999999999996
mp-1058451,HoP,0.0
mp-1027860,CsMg14Fe,0.0
mvc-12383,Mg(NiO2)2,0.2898999999999998
mp-684675,V12P7,0.0
mp-647363,La21Fe8Bi7C12,0.0
mp-720100,NaH18C9I(NO)3,0.1662
mp-861510,Pr2SnHg,0.0
mp-626225,Ca(H8O5)2,3.5137
mp-772034,Ba3LaI9,2.2280999999999995
mp-614489,GdInCu2,0.0
mp-7121,Dy(AlSi)2,0.0
mp-504878,VBiO4,2.2989999999999995
mvc-1846,AlCu7O12,0.0
mp-22270,CoP,0.0
mp-627993,LiV2O5,0.2925999999999997
mp-1080031,Co(ClO3)2,0.11809999999999996
mp-5603,NbCoTe2,0.0
mp-849384,Li11V8(PO4)12,0.7162999999999999
mp-973143,ScZn3,0.0
mp-6597,CsLiSO4,5.3584
mp-29811,Hf3P3Pd4,0.0
mp-1078874,Ba2CeTaO6,0.0
mp-25626,K2VH2OF5,2.4323
mp-573495,ICl,1.1579
mp-1077157,IrC2,0.0
mp-767658,Li4Mn2Co3Te3O16,0.7525999999999997
mp-30234,Cs2WCl6,0.0
mp-9769,BaAs2Pt,0.0
mp-560300,Nd3CuSnS7,1.7587000000000002
mp-541601,KPr(PO3)4,5.3491
mp-555313,ScBiO3,2.6869
mp-697211,Na2CaPb3(CO3)5,3.7778
mp-16866,KNpN3O11,0.053799999999999966
mp-15103,Sr3Y2(GeO4)3,3.1359
mvc-1989,Ba2ZnCuAg2F14,0.038100000000000016
mp-7760,AlSn,0.038100000000000016
mp-80,Sb,0.0
mp-1019809,KBe2B3O7,4.949
mp-553918,Eu2B5ClO9,0.8729000000000005
mvc-16433,CaCuP2O7,0.6021000000000001
mp-641167,Ag2Mo2O7,1.9882
mp-12924,KLaSiS4,2.6881
mp-622198,Ti3(BiO3)4,1.6328000000000005
mp-1878,HfBe13,0.0
mp-504921,Sc7CBr12,0.10050000000000026
mp-673875,Fe2RhS4,0.0
mp-23336,CsMnCl3,1.4850000000000003
mp-568347,NbSe2,0.0
mp-645799,VP2Pb2O9,2.2786
mp-1079803,Th(BOs)2,0.0
mp-18950,BaCa(FeO2)4,1.779
mp-677248,Ca2AlH10IO8,3.7769
mp-4131,Sc(CoSi)2,0.0
mp-572254,BaMnSnS4,1.1553999999999998
mp-675496,Fe2SnS4,0.0
mp-21611,Na2InCuF7,0.0945999999999999
mp-27507,ScCl,0.0
mp-763473,Li2FeCo9O20,0.008199999999999985
mp-1026577,SrMg14Sb,0.0
mp-776877,Mn2Cr(PO4)3,0.0
mp-976838,Ni3Au,0.0
mp-2885,Ga(MoS2)4,0.14789999999999992
mp-581775,Cs5(KPb6)3,0.7385999999999999
mp-760690,Li8TeO6,2.6254
mp-776188,Li4Fe(TeO4)3,0.0
mp-756245,BaYI5,2.1035
mp-989548,Rb2NaTlF6,3.6388
mp-1038915,CaZn,0.0
mp-25178,In6WO12,1.7721
mp-634977,Cs3Fe2Cl9,0.5004
mp-1074466,Mg4Si3,0.0
mp-1016606,Mg6NbCd,0.0
mp-1078104,Fe2CoSe4,0.0
mp-865604,Li5Mg,0.0
mp-1096119,Al2CrFe,0.0
mp-684678,H2O,0.05420000000000025
mp-556591,SiO2,5.7675
mp-1062643,CoO2,0.0
mp-864716,PaGaAu2,0.0
mp-642216,MgSiO3,5.0524
mp-1026929,Te4MoW3(SeS)2,0.0
mp-676545,Cd(Bi9O14)2,0.3770000000000007
mp-19458,BaV10O15,0.8142000000000005
mvc-6284,Fe3(AsO4)4,0.0
mvc-9137,MgMnBiO5,0.9758
mp-561598,BaPbO3,0.0
mp-863907,V18Ag7O48,0.7470000000000001
mp-865756,YbGaPd2,0.0
mp-769171,SiGeO3,2.8185
mp-17129,Sr3(AlN2)2,1.9055
mp-1028302,Mg14VSi,0.0
mp-765267,Li3Fe(BO3)2,2.4444000000000004
mp-778242,Ti2Fe(PO4)3,0.16089999999999982
mp-647878,SbS5N5Cl6,1.8726
mp-1013704,Ca3BiSb,0.0
mp-686084,Nb12I21Br,0.0961000000000003
mp-771578,Ti3Ni3(TeO8)2,0.28169999999999984
mp-7714,Li4UO5,2.0777
mvc-12621,MnZnO2,0.0
mp-6781,AgCNO,3.0511
mp-8583,Ba(PRh)2,0.0
mp-1095060,Na3Cl2,0.0
mp-17651,HoPtF7,2.1035000000000004
mp-7632,NiMoP,0.0
mvc-1308,BaYMn4O7,0.0
mvc-15049,CaPrMn2O6,0.0
mp-12743,CrTe4Au,0.0
mp-566827,K4V5CdClO15,2.3296
mp-541376,Ba6Co25S27,0.034399999999999764
mp-6879,Ba2CaCu2HgO6,0.0
mp-540301,Ni(PO3)4,0.3389
mp-754501,Ca(CuO)2,1.5254000000000003