mpid,formula,gap pbe
mp-862800,PrI3,1.9521
mp-568983,MnSbRh,0.0
mp-762988,LiMnF3,3.595
mp-36407,Nd2EuSe4,0.4859
mp-1022075,HfMg6Cu,0.0
mp-773237,Mn5CuO12,0.0
mp-1080858,CeSe2,0.6966999999999999
mp-760405,ErBO3,4.5583
mp-21806,YNi5Ge3,0.01529999999999987
mp-1022940,Mg6MnBi,0.0
mvc-6957,CaVP2O7,2.1767
mp-561834,Cs4CO4,1.227
mp-865580,Li2DyIn,0.0
mp-767896,Li2SiNiO4,3.1114
mp-767254,LiCo2(PO4)2,0.5239
mp-775145,Li4Nb3Cu3(SnO8)2,0.18530000000000024
mp-17118,Y3Ge5,0.0
mp-17473,Na2Al2As3,1.1771000000000005
mp-1094822,MgBi2,0.0
mp-686044,Bi12Rh12O41,0.0
mp-771755,LiMnFeO4,1.4258
mp-1080261,CeSe2,0.9678
mp-771281,Li5V4(PO4)6,0.8586999999999998
mp-778720,Cr4OF11,0.7559
mp-579270,Ca4Al6WO16,3.9812
mp-675416,Sr4Nb2O9,3.0104000000000006
mp-998613,KGeCl3,2.8194
mp-7283,LaB4,0.0
mp-555741,RbAu(SO4)2,1.7149
mp-20711,Fe3Ge,0.002600000000000157
mp-779757,LiNi4(P2O7)3,0.0
mp-868325,Li7V(O2F)2,1.966
mp-626631,Al(HO)3,3.8336
mp-650927,NaMn3F10,1.493
mp-1094139,Ni2O5,0.0
mvc-7826,Mg3Cr6(FeO6)4,0.004599999999999938
mp-774430,Li2MnF4,4.592
mp-557180,CaAs2(XeF5)4,2.5746999999999995
mp-1019745,K2Ca3Si3O10,4.7468
mp-771871,FeCoO4,0.0
mp-567566,Ho7FeI12,0.0
mp-680561,U5Re3C8,0.0
mp-33533,La2UTe4,0.0038000000000000256
mp-1023027,Mg6MnNi,0.0
mp-15846,Lu5SbPd2,0.0
mp-677291,Ca2Bi10O17,1.5488
mp-31573,Co(PO3)4,0.3927000000000001
mp-557213,Te2Xe(OF5)2,2.2917
mp-754172,La3Ti2N3O4,1.0174000000000003
mp-22775,Sr(Sb3Ru)4,0.0
mp-30559,LaCo13,0.0
mvc-6242,Zn(AgO2)2,0.2347000000000001
mp-771584,Mn3VO8,0.7397
mp-622203,BaMnGaF7,3.624
mp-777749,Y2Sb2O7,1.9164999999999992
mp-756180,Ba2Hf7O16,4.0367
mp-767940,Li2VF5,2.3963
mvc-9036,LaVZnFeO6,1.5153
mp-2951,CdGeO3,1.5283000000000002
mp-984359,DyO3,0.0
mp-1009076,IrN2,0.0
mp-570045,Sm3CuSiSe7,1.3713999999999995
mp-556537,SiO2,4.5413
mp-29835,K2SnTe3,0.9613
mp-1096017,NaHg2Sb,0.1862999999999997
mp-1076893,Ba2Sr6Co5Cu3O20,0.00649999999999995
mp-21449,NbCoP,0.013799999999999812
mp-27556,CsNbO3,3.319
mp-1025379,Tb2B4C,0.0
mp-766856,CuPO3,0.8381999999999996
mp-1026415,Mg14TiB,0.0
mp-676518,In3SbTe2,0.0
mp-16315,GePt3,0.0
mp-567306,Li3Ga7,0.0
mp-1027874,Mg14VFe,0.0
mp-743989,VH10SO10,3.1014
mp-5351,Tb(GePd)2,0.0
mp-767433,LiV2OF5,1.7501
mp-31247,Eu2Te4O11,0.0015000000000000568
mp-1018013,Ti2InNi,0.0
mp-979,ZrSb2,0.0
mp-1032299,Mg6VCoO8,0.4710999999999999
mvc-11697,YCuO3,0.0
mp-866745,La3CrW(SO2)3,1.3701
mvc-6970,MgVP2O7,2.6678
mvc-6390,MoO2,0.0
mvc-8664,MgFe(Si2O5)2,3.771
mp-22324,TbGePt,0.0
mp-646670,Ba2Co4ClO7,0.0
mp-1003311,CaMn2O4,1.2687999999999997
mp-541750,CsS2N(O2F)2,5.4829
mp-1019051,ReC2,0.0
mp-995227,H6PbCI3N,1.594
mp-10178,LiMgP,0.0
mp-763004,LiMnF3,3.51
mp-1079083,SiPd,0.0
mp-1016680,Mg6NbGa,0.0
mp-541628,CsTeF5,4.7228
mp-780916,Na5CrO4,0.6587000000000001
mp-763896,Li7Mn7P6(O8F)3,3.1664000000000003
mp-5777,BaTiO3,2.293
mp-1026738,CeMg14Cd,0.0
mp-1098531,CsMg30CrO32,2.7451000000000008
mp-31402,Sm2GeRh3,0.007299999999999862
mp-505767,K2NaInSb2,0.5808
mp-763909,V6O11F,0.0
mp-763176,Mn3(O2F)2,0.06800000000000006
mp-1017072,CsMg6Nb,0.0
mp-13548,Cs2Pt,1.6768
mp-1063239,DyPd2,0.0
mp-1033094,Mg6AlNiO8,0.9376999999999996
mp-17141,Er3(AlNi3)2,0.0
mvc-8419,CaV(GeO3)2,0.3807
mp-760510,Sr2Bi2O5,2.2664
mp-781619,Li3Mn4(BO3)4,0.4289999999999998
mp-851006,Na6V2B4PO16,0.0
mp-770507,Li4Ti3Mn3(NiO8)2,1.1058
mp-21205,Tm2InPd2,0.0
mvc-5942,Ca2AgWO6,0.05800000000000005
mp-7829,MnNbSi,0.0
mp-21185,Cd3P2,0.0
mp-754184,ErAlO3,3.5517000000000003
mvc-4640,ZnCuO2,0.0
mp-27231,Li2TeO3,3.6534
mp-28030,Li8Nb2O9,3.2086
mp-770340,Li4Cr3CoO8,0.8859000000000004
mp-19672,SrCo2(PO4)2,2.8715
mp-675360,Yb22Fe7S40,0.0
mp-861575,Li3V(BO3)2,2.5749
mp-771358,Li24Ti5Cr7O36,1.2258999999999998
mp-862599,LiErAu2,0.0
mp-767999,Ti3Mn2Co3O16,0.03880000000000017
mp-690550,Co7(RuO6)2,0.0
mp-542909,Mn,0.0
mp-769349,BaTa6O16,2.1822
mp-686367,Sr2La14Mg4(Ga4O15)3,1.2361999999999993
mp-11494,LuPb3,0.0
mp-764674,Co2OF3,0.0
mp-767876,Li3MnPCO7,4.1411
mp-1068331,Y2Ni2Sn,0.0
mp-29128,K2Te4O9,2.9189000000000003
mp-8615,NbBO4,2.4711
mp-631388,CdIrRu,0.0
mp-12160,Li6Ho(BO3)3,4.7449
mp-31233,Ca4P7Ir8,0.0
mp-25960,Bi(PO3)4,0.016800000000000037
mp-755072,Na2O,1.0298
mp-650026,PrIn2Cl5,2.7765000000000004
mp-1039809,RbNaMg30O31,2.2343
mp-1036323,BaCaMg14O16,1.1914999999999996
mp-559384,BaNaNdSi2O7,4.4466
mp-1017466,SrMnO3,0.0
mp-754462,SbTe2F6,0.9942999999999996
mp-1073910,Mg6Si5,0.0
mp-1079283,LaAlH6,2.4765
mp-622615,SrLaMnCoO6,0.0
mp-777631,LiMn2F5,3.2776
mp-675846,Ca5ThF14,4.84
mp-772454,Li6V3P8O29,1.0314
mp-853176,Li3P7W5O29,2.2117
mp-27539,La2ReO5,1.0111999999999997
mp-698551,Li2Mn15O32,0.0
mp-14387,Tb3Al5O12,4.473000000000001
mp-9945,CoTe2,0.0
mp-40793,Si3N4,1.8186
mp-690581,Li6Mo2O7,1.0872000000000002
mp-1032800,Mg6MnNbO8,0.0
mp-773986,LiV9O22,0.0
mp-780648,Fe2O3F,0.0
mp-559330,Sr4B14O25,5.206200000000001
mp-30314,Cs2PdCl4,1.7012999999999998
mp-764428,Li12Cr5O16,0.5859999999999999
mp-764190,NiP4O11,4.5253
mp-21371,VCoSi,0.0
mp-1014365,Cr3N4,0.0
mp-763437,LiWF6,3.4708
mp-767459,LiV3Fe2CuO12,0.6459999999999999
mp-1096256,Sc2PdRh,0.0
mp-770566,Be(FeO2)2,1.7691000000000003
mp-753629,Zr2O,0.0
mp-557810,BaH6F8,7.5667
mp-762431,Li2CrSi4O11,0.5257999999999998
mp-1076249,La5Sm3Ni7AgO24,0.0
mp-865920,YbPmZn2,0.0
mp-3579,UGeSe,0.0
mp-30379,GaAu,0.0
mp-5134,LaMg2Ni9,0.00480000000000036
mp-548824,BaTbO3,0.0
mp-6755,KSn4(PO4)3,3.7643
mp-849600,Li4Fe3Sn3(SbO8)2,0.1651000000000007
mp-27722,Pd(S3N)2,1.2357
mp-1034591,Mg14SiCO16,0.0
mp-715478,CoO2,1.2879999999999998
mp-745044,VH8C2N2O6F,3.1362
mp-625812,Sr(H2O3)2,2.4406
mp-1026473,CsMg14Ti,0.0
mp-772054,LiMnVO4,0.0
mp-675078,Ba(FeS2)2,0.0
mp-30110,SrLaI4,0.0
mp-19834,CeInCu2,0.0018000000000002454
mp-578721,NiH12SO10,4.9868000000000015
mp-1095131,SrTa2O7,1.8231
mp-8221,ZrAsRu,0.0
mp-601328,KCrF3,0.0
mp-765100,Li8Mn6(FeO6)3,0.6614
mp-604318,K,0.0
mp-773718,Li4Fe2(PO4)3,1.5436
mvc-5584,Mg(AgO2)2,0.0
mvc-3099,MgTiPO5,0.16270000000000007
mp-1019539,BaB2S3O13,6.181
mp-566256,CaFeSbAs2O7,1.8444
mp-778506,Li2VF5,2.8520000000000003
mp-570791,SiC,1.9695
mp-669418,Sr2NiN2,0.0
mp-2371,Ga2Te5,0.9570000000000001
mp-917642,CeGe2,0.0
mp-1098504,RbMg30CrO32,3.1366
mp-766202,Li7Ti3(SiO6)2,0.0
mp-758842,NbH14C4NO14,3.1805
mp-764802,Li2VF6,1.75
mp-567671,VCdClO3,2.7025
mp-568778,CuTeBr,0.7599
mp-707182,UAsH9O10,2.5299
mp-559071,Ag2Bi2S3Cl2,1.6367999999999996
mp-2911,Ba3(SnP2)2,0.8061999999999996
mp-770932,LiSbO3,2.6465
mp-6226,NaSn4(PO4)3,3.7411
mp-765573,Li4Zr3O8,3.6981
mp-864655,PaCo3,0.0
mp-1097524,CdAgAu2,0.0
mp-1031421,KNaMg6O7,0.0
mp-23375,PNCl2,4.1175
mp-770630,RbLi2Cr2(BO3)3,2.0057
mp-868673,Li15Mn15SiO32,0.3111999999999999
mp-23305,EuI2,1.3513999999999995
mp-639774,Sr,0.0
mp-779360,VOF,1.5008
mp-780751,Li3Mn2Cr2O8,0.1288999999999998
mp-17465,Gd2Cu(SeO3)4,0.7361999999999997
mp-770252,CaNiO3,1.1857000000000002
mp-976293,NaCdO3,0.0
mp-779961,Co6O5F7,0.06769999999999987
mp-565287,KNi3As3O11,2.5344
mp-28672,Zr2TeBr12,2.4198
mp-866298,BaNaScSi2O7,4.6606
mp-1050,Ni3S4,0.0
mp-28214,TiBr3,0.015199999999999882
mp-762635,Li3Mn3NiO8,0.3784000000000001
mp-1021731,RbMg6Ni,0.0
mp-819025,TiMnO3,2.3341
mp-1035964,CsKMg14O15,2.2245000000000004
mp-567433,BP(IBr)3,1.9337
mp-2284,AgF2,0.0
mp-557388,Bi2MoO6,2.6394
mp-862920,PmIn3,0.0
mp-19201,CaMnO3,0.5402
mp-18929,BaV2O6,2.8551
mp-1077223,Li4NO,0.0
mp-27645,ReCl5,0.0
mp-842,CaPt2,0.02249999999999996
mp-1022614,Mg6TiZn,0.0
mp-675237,Na3GdI6,1.5033
mp-7705,NbFeB,0.0
mp-10814,SrLiBO3,4.3664
mp-23070,BaBrF,4.8829
mp-1072248,EuSi2,0.0
mp-1094704,Mg5Cd,0.0
mp-973126,ScBiPd2,0.0
mp-1074028,Mg9Si5,0.0
mp-777046,Li4Ti5Co3O16,0.5101
mp-776616,LiV2F7,2.2743
mp-1091395,ZrGeOs,0.0
mp-28868,Nb3(BiS3)2,0.0
mvc-6014,CaTi2O4,0.0
mp-561454,KAu(SO4)2,1.4475
mp-1025740,MoW2(Se2S)2,0.8536999999999999
mp-19620,BaHoCo4O7,0.18510000000000024
mp-772481,Li4Mn5Fe3O16,0.17379999999999995
mp-1071618,NdCuSn,0.0
mp-556280,ZnS,2.0261
mp-1079296,HfAu3,0.0
mp-865188,MgH8(ClO6)2,5.3052
mvc-3464,YSnO3,0.0
mp-12987,Ho2NiGe6,0.0
mp-627575,K4Zr6CBr18,1.1617000000000002
mvc-12204,FeO2,0.0
mp-850413,LiCrPO5,0.4313
mp-634660,CoH4SeO5,2.7463
mp-1096860,Ca2TiO4,1.8864
mp-778912,Gd2(WO4)3,3.3302
mp-542486,Sc3(Si2Ni)2,0.0
mp-723043,K2TeH6SeO10,3.3695000000000004
mp-1097677,NaMg2Cd,0.0
mp-761518,Li2Fe(PO4)2,0.0
mp-865269,TmCuPbSe3,1.1212
mp-11836,ErSbPd,0.3638000000000004
mp-1080262,CeSe2,0.9687
mp-867310,CeSnAu2,0.0
mp-2779,FeS,0.0
mp-978844,SrCa3O4,3.6947
mp-13126,ZrN,0.0
mp-21502,BRh2,0.0
mp-1097778,Sr2Ti2O5,0.0
mp-769816,Ca3W2O9,3.4497
mp-777433,V6O7F5,0.28489999999999993
mp-769744,Li4Cr3CoO8,0.8529
mp-559617,HfB2O5,4.4110000000000005
mp-672689,Hf6Co16Si7,0.0
mp-705510,Rb4NaW2N5O,0.05810000000000004
mp-562720,Na3V(SO4)3,0.0
mp-770602,TiVO3,0.6252999999999993
mp-759792,Ag2B8O13,3.1034
mp-1096866,CdO2,0.0
mp-5813,TaNO,2.2732
mp-1008280,CrCo3,0.0
mp-510765,Li3Cu2(WO4)4,0.0
mvc-13808,MnN,0.0
mp-2749,TiBe2,0.008099999999999774
mp-780024,LiMn(PO3)3,4.4927
mp-771629,Li2MgMn3O8,1.3888999999999998
mp-38487,Li7BiO6,1.8635
mp-1096710,TiV2W,0.0
mp-16834,Zn3(AsO4)2,2.4389
mp-30652,Sc3(MnGa3)2,0.010299999999999976
mp-646586,Sm6InCo2,0.0
mvc-16412,BaCa4(CoN2)2,0.19519999999999985
mp-1025409,TmPt,0.0
mp-23526,KClO4,5.7034
mvc-7448,MgAgBiO5,0.0
mp-7976,RbGdO2,2.9969
mp-972978,ScVO3,0.0
mp-1008866,NaAgO,0.0
mp-19212,Rb2MoO4,4.4287
mvc-5121,Mg(BiO2)2,1.5534
mvc-5927,Mg2BiWO6,2.2513
mp-1080865,CeSe2,0.8325
mp-3526,ErInPt,0.0
mp-1094743,MgZr,0.0
mp-1033673,HfMg14CO16,0.1897000000000002
mp-686004,Li3ScCl6,3.989
mp-746702,CsFeH24(SO10)2,2.8558
mp-1070147,Cd(NCl)2,1.1988
mp-18243,K2Si3SnO9,3.8296
mp-1546,DyMg3,0.0
mp-864621,NdGa3,0.0
mp-30491,MgCd3,0.0
mp-777057,LiCoPO4,2.8356000000000003
mp-769805,Li5Co5(SnO6)2,0.0
mp-1028128,CaMg14Sb,0.0
mp-1080407,Ca2CoO3,1.1088
mp-630875,Ca2In4Au3,0.0
mp-780869,Tm2WO6,3.2151
mp-655048,LiAlSiH2O5,4.3331
mp-1030682,Te3MoWSe,0.017500000000000068
mp-722330,Li3La2H6(N3O10)3,3.5098
mp-540291,CrP2O7,0.014500000000000013
mp-770052,Li3Fe2P2(CO7)2,0.0
mp-766150,Li4Ti2Mn3O10,0.4941
mp-721182,PH11(NO2)2,5.3405
mp-558174,TlSb3(AsS4)2,1.56
mp-972222,TaBeO3,0.0
mvc-14111,Al5(FeO4)3,2.0272
mp-10598,CuSn,0.0
mp-626496,Al(HO)3,5.6644
mp-685146,CdTe,0.6234
mvc-704,AlV(WO4)2,1.7233999999999998
mp-977421,TbGaRh2,0.0
mp-779746,Li4V3Fe2Sn3O16,1.4420000000000002
mp-16718,Al6Tc,0.02210000000000001
mvc-4246,TaReO6,1.1635
mp-4250,Tb(SiPd)2,0.0
mp-631496,Be2ReCl,0.0
mp-568514,BPBr2NCl3,2.9078
mp-559238,CsLi2BS3,3.0936
mp-531696,Ti9ZnS16,0.0
mp-1062989,CeO2,0.0
mp-672273,AlBiCl6,3.7506
mp-623064,ReN2(OF4)2,0.1825
mp-1030664,NaMg6BiO8,0.8388999999999998
mp-4691,Ag2CO3,0.4668000000000001
mp-850118,Cr(PO3)2,2.1596
mp-567378,Ba5P9,0.0
mp-560025,Ag2S,0.36839999999999984
mp-555091,Rb2Na2IrO4,0.0
mp-1030988,LaHfMg6O8,0.0
mp-1027759,TeMoWSeS2,0.0
mp-27308,SbBrF8,2.6902
mvc-5496,MgCuP2O7,0.5116999999999998
mp-772064,BaLaCl5,3.5974
mp-559781,KY(CO)8,2.0998
mp-1026624,RbMg14B,0.0
mp-1037091,Mg30ZnCO32,3.1845
mp-559933,Ba3In2Cl2O5,1.4312
mvc-4030,Ti3Al2(SiO4)3,0.6799999999999997
mp-1029232,MoW3(SeS3)2,0.5316999999999998
mp-779571,La3B5O12,3.8196
mp-614185,Pb(SN)2,1.1674000000000002
mp-1028178,CaMg14V,0.0
mp-695698,Ca2TiAlSi2O9F,3.0731
mp-674842,Er2Zr2O7,2.8423000000000003
mp-7751,PuPt5,0.0
mp-561465,TlSbO3,2.1507
mp-767138,Li2VSiO4,1.255
mp-771490,Li5Mn5(SnO6)2,0.09750000000000014
mp-941,Ni5As2,0.04129999999999967
mp-2165,SmZn,0.0
mvc-13140,Cu2GeSe4,0.0
mp-568136,RbVBr3,0.5943
mp-6810,K2Ti(SiO3)3,3.2039
mp-1025009,CoNiSb,0.0
mp-755447,Li3Cu3(PO4)2,1.1587000000000005
mp-778564,LiFe7(OF3)3,2.1882
mp-767669,Li3Mn3(FeO5)2,0.9265
mp-770016,LiVBO4,1.4280000000000002
mp-1032201,Mg6CuBiO8,0.03869999999999951
mp-570393,Cu8GeSe6,0.3182999999999998
mp-639705,SiO2,5.4941
mp-764634,Li2CoSiO4,2.4566
mp-756591,Sm3NbO7,2.5867
mp-777111,Li11V12(OF)24,0.0
mp-978095,Pr2CdPb,0.0
mp-565443,Ba4PrMn3O12,0.0
mp-762204,Co25Cu11O48,0.0
mp-1013874,NaTi3P3O13,0.0
mp-631379,ZnCuMo,0.0
mp-684119,LiTi(PO3)5,1.4422
mp-984727,Ce3Br,0.0
mp-6119,Na2Nd2Ti3O10,2.0455
mp-849967,Mn4O7F,0.0
mp-662563,CsFe2Se3,0.0
mp-9886,La(PRu)2,0.0
mp-685006,Ta10O9,0.0
mp-16595,K3DySi2O7,3.7062
mp-566314,Na3Fe2(AsO4)3,2.1857
mp-21869,Gd(Sn3Ru2)2,0.017199999999999882
mp-3998,LaTaO4,3.3866
mp-7083,LaSi,0.0
mp-604717,SiO2,5.1678
mp-5246,KNbO3,2.0585
mp-1009150,MnN,0.0
mp-772458,Mn3Cr3(TeO8)2,0.0
mp-28282,RbTiCl3,0.0
mp-566556,SrTlVO4,3.2379
mp-560182,AgH11C4(SO)3,3.4244
mp-772780,K3BePCO7,4.0032000000000005
mp-768774,LiBi4B3O11,3.4960000000000004
mp-653763,SiO2,5.5171
mp-585339,LiCu2P5O16,0.1826
mp-1094501,MgTi,0.0
mp-7167,SmRh3C,0.0
mp-765895,LiVF5,2.1274
mp-766656,Li3V3O5F3,1.4294999999999998
mp-569638,Dy2Co17,0.0
mp-766851,Li4V(PO4)2,3.2092
mp-1078387,FeCu3S4,0.0
mp-554572,K3NbP2O9,2.8040000000000003
mp-632402,LiCaUF8,0.3838999999999999
mp-1080344,CeSe2,1.0036
mp-22344,Sn7Ru3,0.0
mp-765166,LiVFe(P2O7)2,1.6369999999999998
mp-8053,YCo,0.0
mvc-8361,Co(GeO3)2,0.2882
mp-765872,LiMnPO4,3.4276
mp-1022100,KMg6Cu,0.0
mp-971833,Tm3V,0.0
mp-561512,K4Cu4Cl10O,0.051100000000000034
mp-778369,V3OF11,1.5402
mp-754304,BaYI5,2.7805
mp-1099128,BaMg14MnO16,0.5894000000000004
mp-752484,YbB4O7,6.996500000000001
mp-2525,PrAg,0.0
mp-1094173,LaMg,0.0
mp-1026806,LiMg14B,0.0
mp-722246,SiH10(O2F3)2,6.5957
mp-29603,Rb2ZrTe3,0.4985
mp-849942,Na4VO4,0.9879000000000002
mp-30229,Tb5C2Br9,0.7649999999999999
mp-29394,Gd2CCl2,0.5390999999999999
mp-18071,Ce3SiAgSe7,0.01980000000000004
mp-569347,Nd5Sn4,0.0
mp-1099079,CeMg14Sn,0.0
mp-761931,Na8SnO6,1.0551
mp-765847,Co3SbO8,0.0
mp-1026433,Mg14BiSb,0.0
mp-697127,K3HPdS2(ClO3)2,2.1594
mp-628327,Fe2O3,0.5218000000000003
mp-23636,Cs3Np(Cl2O)2,0.3642000000000001
mp-1080028,Sr2ZrTiO6,2.5093000000000005
mp-28383,KNaS,2.4851
mp-2052,ScAs,0.0
mp-778014,Li6MnFe5(BO3)6,2.8181000000000003
mp-569413,K2Sr(NbCl3)6,1.0746000000000002
mp-775782,Na4Sn2C4SO16,0.0
mvc-6043,Mg(MoO2)2,1.8999000000000008
mp-23977,HS7N,2.0186
mp-767790,Li3V4(PO4)6,0.2391000000000001
mp-1095513,SrCdAu,0.0
mp-1093819,LiScCd2,0.048499999999999766
mvc-15235,YCr3O9,0.6439999999999999
mp-541495,KY(PO3)4,5.3516
mp-767645,LaW9O28,0.0
mp-555310,K14Fe4O13,2.2505
mp-560633,Al2SnCl6O,3.959
mp-1096276,Ba2MgCd,0.07390000000000008
mp-769872,Ti2Mn3Te3O16,0.0
mp-562541,Cs2Na3TlO4,1.4570000000000003
mp-909296,CeZnSbO,0.0
mp-771657,Fe3Co5O16,0.0
mvc-6929,NiO2,0.0
mp-862715,Al2PdRu,0.0
mp-752671,Ba2SrI6,4.0581000000000005
mp-11641,Ag2SeO4,0.5841
mp-1098839,Mg30CoCuO32,0.0
mp-778534,LiCrPO5,1.1485
mp-24229,Na2CaH10C2O11,4.6291
mp-766457,LiSnP2O7,1.5229000000000004
mp-28351,Dy2GeO5,3.9954
mp-984713,Dy3Ga,0.0
mvc-15020,Ba4CaCr4Cu2F28,0.5193
mp-756750,Dy2TiO5,3.0481
mp-573935,CsYbZnSe3,0.0
mp-1093690,LiLa2In,0.2581
mp-505306,Eu2Sn2O7,0.07200000000000051
mp-567076,Li2BiAu,0.0
mp-684493,LiSn2P3O10,3.6428
mvc-9657,PrZnCr2O6,0.5162
mp-770494,LaMgI5,2.5769
mp-540625,GeSe2,1.4381000000000002
mp-650007,Cs4TlSbCl12,0.9016
mp-1025232,V2CrSe4,0.0
mp-1281,VIr,0.0
mp-753,ZnSb,0.04099999999999948
mp-690577,Co2CuO4,0.0
mp-6309,La3Cu4(P2O)2,0.0
mp-756127,TaNbO5,2.3307
mp-18883,YVO3,1.6006
mp-565609,Na4Th(MoO4)4,3.9494
mp-31154,Ca5Hg3,0.002899999999999903
mvc-9002,LaMgFeWO6,2.3537
mp-531036,Ba8Nb7S24,0.0964999999999998
mp-31584,Na3CoO3,1.77
mp-31751,Ba2Cr7O14,0.1293000000000002
mp-20343,NaAuO2,1.0651000000000002
mp-4034,LaTe2Se,0.0
mp-767984,Li2NiP2O7,4.3660000000000005
mp-779465,Ti17(NO4)6,0.0
mp-505133,Ta4Co2PdSe12,0.027900000000000258
mvc-9957,HoZn(SnO3)2,0.0
mp-769619,Ni2PO5,0.0
mp-1096993,HfC,0.0
mp-764821,V6O11F,0.5169000000000001
mp-542757,EuClO,0.014800000000000146
mp-1039056,MgCd2,0.0
mp-1036968,Mg30CoBO32,1.2622000000000009
mp-1021289,CsLiMg6,0.0
mp-561428,NiF3,0.0
mp-6430,Ba2YReO6,0.0
mp-556605,ZrO2,3.6907
mp-558297,Na2Ce2TiSi(CO6)2,0.031899999999999366
mp-866826,CaSnS3,1.6173000000000002
mp-559701,LiV2F6,0.13629999999999987
mp-997018,AuClO2,0.262
mvc-12575,ZnCrO2,0.0
mp-763556,LiV(PO3)4,2.7822
mp-570100,Tm(NiP)2,0.0
mp-1032743,YMg6ZnO8,0.0
mp-978825,Sm3Cr,0.0
mp-567540,Ga,0.0
mp-1078026,Ti2FeS4,0.0
mp-780545,Na3VO4,4.0296
mp-5342,GaAgS2,0.9598
mp-766023,Li2Cu2Si4O11,0.4212000000000001
mp-559533,NaLiCO3,4.4482
mp-569806,K5Na(Ti2Se9)3,0.8225000000000002
mp-558576,ReSb(OF4)2,3.7699
mp-20541,V2P,0.0
mvc-14999,Al4(FeO4)3,0.0
mp-1036604,Mg14AlSiO16,0.0799000000000003
mp-861734,AcZnAu2,0.0
mp-11610,PrCo4B,0.0
mp-867963,Pu(SiPt)2,0.0
mp-940,GdN,0.0
mp-763985,Cr4OF11,0.7937000000000001
mvc-11632,VBiO5,0.12879999999999994
mp-540824,Mn2BiO5,0.6021999999999998
mp-868347,LiNi(PO3)4,0.0
mp-685031,Tb8Se15,0.0871000000000004
mp-29153,Zr2NiP,0.0034000000000000696
mp-769513,Li4Ti3Mn6O18,0.5859000000000001
mp-1039204,MgCd2,0.0
mp-989573,Rb2BrCl6F,0.9203
mp-639904,Ce3MoO7,0.28080000000000016
mp-1078078,Co(SiSe2)2,0.0
mp-568134,Cs2CdI4,2.8586
mp-773313,Li2FeCuO4,0.0
mp-746730,FeP4O11,3.5781
mp-30666,Sc3Ga2,0.0
mp-7801,CaGeN2,2.9978
mp-769859,Li4Mn5Ni3O16,0.0
mp-28360,Na3CrCl6,1.791
mp-1097647,Y2PdPt,0.0
mp-4735,TbCo9Si4,0.0
mp-864899,NpP3,0.0
mp-29764,RbHF2,6.8302
mp-1028172,CaMg14Sn,0.0
mp-1095757,SnPd2Au,0.00790000000000024
mp-773715,Er2(WO4)3,4.7386
mp-867854,Ca2ZnRh,0.0
mp-21387,CeInPd,0.0028999999999994586
mp-557761,KBa4Sb3O,1.0220000000000002
mp-1061724,Ba,0.0
mp-19713,Sc3In,0.007200000000000095
mp-569442,RbAuCl4,1.921
mvc-13123,CaFeReO6,1.2039
mp-567197,YSnAu,0.0
mp-30150,GaBH6,4.8941
mp-746679,CoP2H24C8S4NClO4,2.0123
mp-532802,Na2SrNd2Ti5O15,2.2938000000000005
mp-1094403,YMg2,0.0
mp-773558,Li6V3P8O29,1.1502
mvc-9618,CaPrV2O6,0.0
mp-19334,Na4WO5,3.8015
mp-22102,Na3Ir(NO2)6,2.6253
mp-6796,Ca5Si2CO11,4.6044
mp-698663,BaLaTiCrO6,1.2721
mp-600060,SiO2,5.683199999999999
mp-1078980,Eu2ZnP2,0.0
mp-1021897,Mg6NiMo,0.0
mp-13718,NaCd4(PO4)3,2.7576
mp-1095240,Ca3(GeIr)4,0.0
mp-1025288,TbGa5Co,0.0
mp-778451,Na6Sn2O7,1.962
mp-755399,Li2CuSnO4,0.2328000000000001
mp-22740,CeCuSi,0.0
mp-626467,Al(HO)3,4.0103
mp-22392,SmCuSeF,0.04010000000000069
mp-1076445,Sr8MnFe7O24,0.0
mp-1095894,HfCdPd2,0.0
mp-26875,Li2CuPO4,1.4313000000000002
mp-579209,Ce10S14O,0.0
mp-505002,Sc5As3,0.0
mp-1065115,MoPb,0.0
mp-1025212,InAsPt5,0.0
mp-863898,Co(IO3)2,2.5895
mp-763948,Co3(OF2)2,0.02069999999999994
mp-600033,SiO2,5.4289
mp-761298,LiVPO4,2.5718
mp-25885,LiCuPO4,0.5775999999999999
mp-1097122,Be2IrRh,0.01560000000000006
mp-7467,RbCuO2,0.9136
mp-753693,Ho2Ge2O7,3.8395
mp-2831,FePd,0.0
mp-1079364,Cs2TcF6,1.8717
mp-769957,CrFe2O5,0.3418999999999999
mp-4400,Si2N2O,5.177900000000001
mp-600242,InH24C6(Br2N)3,2.7839
mp-20724,Mg2Pb,0.0
mp-1033886,Mg14CrCdO16,0.6962000000000002
mp-28279,Gd2NCl3,2.1837
mp-505046,Gd3Sb5O12,2.7158
mp-1080840,K3SmN6,0.31920000000000004
mp-1015908,CrN2,0.0
mp-867156,ScGaRu2,0.0
mp-1094618,MgGa5,0.0
mp-9481,TcS2,1.1885000000000003
mp-504729,Cs2PdF6,2.3065
mp-773596,Na7(CuO3)2,0.0
mp-568478,Nb6Tl2VCl18,0.2608000000000001
mvc-3306,VZnPO5,1.8378
mp-770987,Li3Fe(NiO2)4,0.0
mp-978847,SrGaGeH,0.30779999999999985
mp-605835,Nd4MgRu,0.0
mp-973924,Li(Mg4Al3)4,0.0
mp-1079995,YbPrS3,0.0
mp-16998,Ba2Nb6Te2O21,2.1563
mp-557649,K2Ce(Si2O5)3,2.2219
mp-540792,Ge2S3Br2,2.4276
mp-976446,MgMnO3,0.0
mp-6959,Ga2NiS4,0.028200000000000006
mp-541742,Cs3Mo2Cl9,1.0762
mp-1059200,MgSe,1.7649000000000004
mp-1095068,Lu(BC)2,0.0
mp-1038116,CaMg30NiO32,4.313600000000001
mp-31190,Lu2Ga3Co,0.0
mp-555900,Nb2Tl5S4Cl9,1.6261
mp-667495,Os4C12SO12,2.1335
mvc-12287,Mg2Fe2(SiO4)3,0.9051999999999998
mp-556498,Sr2Be2B2O7,4.079700000000001
mp-761185,KPH3O4F,5.7538
mp-541844,Ge5Ir4,0.12790000000000035
mp-1074023,Mg9Si5,0.0
mp-566001,CrHg(PbO3)2,2.0835
mp-560569,KPrPdO3,0.5977999999999999
mp-984755,Nb4Ag2O11,2.3723
mp-1097574,Ba2HgGe,0.17609999999999992
mp-30416,Rb4Sn2Au7,0.13680000000000006
mp-861501,AgHgPd2,0.0
mp-767275,Li2CoCuO4,0.0
mp-554355,CaF2,5.1324
mp-561123,U2AuF11,0.0
mp-775004,Fe3P6WO24,0.0837
mp-654109,BaCu4S3,0.4519000000000002
mvc-6726,CaSnP2O7,3.6382
mp-566725,TmMnO3,0.4205999999999999
mp-647725,Os5C17O16,2.0169
mp-1094502,Mg2Ti,0.0
mp-6305,K3TiO4F3,2.536
mp-865141,Lu4Ni13C4,0.0
mp-1078329,ZnPbO3,0.0
mp-4478,CaSiPt,0.0
mp-972534,SmDy3,0.0
mp-1023360,CsMg6Al,0.0
mp-1001604,LuTlS2,2.1521
mp-5353,ErCo3B2,0.0
mp-769969,TaFeO4,1.8831999999999995
mp-8957,Na5TaO5,2.6706
mp-865666,Li2TlAg,0.0
mp-15761,Ba4Ti12O27,0.0
mp-1079947,Pd3N,0.0
mp-762864,Li3Mn2(PO4)3,0.8166000000000002
mp-19235,Sr6(CoO3)5,0.4873000000000003
mp-17944,NaCaAlF6,7.1135
mp-371,La3Tl,0.0