mpid,formula,gap pbe
mp-1098736,Mg30MnCO32,1.8745000000000005
mp-1026407,Mg14GaBi,0.0
mp-32401,NiP2O7,0.1238
mp-767201,Li4Mn2Cr3Fe3O16,0.0
mp-554575,In2Co3S2,0.0
mp-21321,MnSe2,0.0060999999999999934
mp-984697,EuLu2O4,0.1374000000000004
mp-759735,Li2Bi(PO3)5,4.3121
mp-1093891,AlZnNi2,0.0112000000000001
mp-18770,YCrO3,2.1654
mp-720410,K2NaCa2TiSi7HO20,3.4273
mp-1098924,Mg30VNiO32,2.0633999999999992
mp-1075779,Mg5Si9,0.0
mp-763200,LiVO3,1.9675
mvc-9164,V3ZnO7,2.0684000000000005
mp-555740,SiO2,5.5865
mp-767312,Fe13O15,1.2639
mp-961655,YCdGa,0.0
mp-1058151,NCl,0.0
mp-23382,Y4CI5,0.0
mp-998866,C,0.0
mp-1016638,Mg6CdW,0.0
mp-107,Pu,0.0
mp-850930,Li3MnF5,4.3429
mp-571473,K2Sm2As2Se9,1.1005
mp-864626,HoThTc2,0.0
mp-769983,Li2CrFeO4,1.7079999999999995
mvc-9213,CaTiMo(PO4)3,0.9905
mp-773725,NaLi5Mn2P2(CO7)2,3.5250000000000004
mp-680564,Ce2Mg17,0.0
mp-34185,Ca(PrS2)2,2.0570000000000004
mp-18483,Rb6Si2O7,3.1374000000000004
mp-767037,LiV(PO4)2,1.0161
mp-19533,Al2Fe3(SiO4)3,3.8272
mp-3218,Er(SiPd)2,0.0
mp-697038,Ba2H6Ru,1.8699
mp-28529,KInBr3,2.425
mvc-3343,Zn3Sn2O7,1.9487000000000003
mp-991729,CeInPd,0.0
mp-697766,LiMn(PO3)4,1.5583
mvc-3696,Ca3Mo2O7,1.5118
mp-37949,NdSiAg,0.0
mp-777472,LiFeF4,3.9064
mp-972063,YbGe3,0.0
mvc-10090,CrO2,0.0
mp-756854,Sr2LiNb3O10,1.7679
mp-605485,Fe2CuS3,0.0
mp-769476,Li6Fe3Cu(PO4)6,0.3600000000000001
mp-1025440,CuGe3,0.0
mp-1022676,Mg6ZnNi,0.0
mp-764916,LiFe4(BO3)4,1.4879
mp-637599,Bi2O3,0.0
mp-25182,Pb2WO5,3.0894000000000004
mp-775820,Ti2N2O,0.9737
mp-12814,Ba3SbN,0.7075
mp-697926,LiCd2HSe2O7,3.5104
mp-20694,K2Pb2O3,1.6906999999999996
mp-975028,Rb3Cd,0.0
mp-772263,Li2MnBPO7,0.7383
mp-769517,NaMnPCO7,0.6353
mp-23856,LiHO,4.0057
mp-18635,Sr6GaN5,0.3096000000000001
mp-2607,UGe3,0.0
mp-1078093,CaNi5H,0.0
mp-559128,CaTeCO5,3.8456
mp-582242,La8Ni4Br7,0.0
mp-2717,Zr2Ni7,0.0
mp-667363,AlPO4,5.388999999999999
mp-684007,Ba19(InN)9,0.16480000000000006
mp-769862,Fe(AsO2)2,2.4168000000000003
mp-553974,Ba7Fe6CuF34,0.6143000000000001
mp-542663,Ce2SiTeO4,0.0015000000000000568
mvc-1623,MgTa2O6,3.0904
mp-1400,HfW2,0.0
mvc-5240,Ca2YCuO5,0.0743999999999998
mp-9628,KCdF3,3.555
mp-1008395,C,4.115599999999999
mvc-12178,Zn(FeO2)2,1.5701
mp-25076,Nd2MoO6,2.6647
mp-20932,NbNiP,0.0
mp-770039,Li4Cr3NiO8,0.0
mp-541622,KCu3Te2,0.4272
mp-622294,Hg2Pb(SBr)2,2.2465
mvc-10047,CaNi2(PO4)2,0.0
mp-1065394,MoN,0.0
mp-674942,Na3N2O9,0.0
mp-1097643,Hf2CoOs,0.0
mp-21202,Sm3In,0.0
mp-1076766,La5Sm3VCr7O20,0.023900000000000254
mvc-3231,ZnCoSiO5,0.0
mp-853242,Li4V3P8O29,0.8246
mp-25839,Li3Ti2(PO4)3,0.14060000000000006
mp-755576,Zr2N2O,0.0
mp-20805,PdPbF4,1.0993999999999997
mp-706250,Al2FeO4,0.5154000000000005
mp-1076183,Sr7CaTi3Mn5O20,0.29430000000000023
mp-778716,CrO3,1.8552
mp-565869,SrVClO3,2.1836
mp-690687,Ag2H2IOF,1.456
mp-568230,TiCl3,0.0
mp-761578,Li2Cr3(SiO3)4,2.3455
mp-1099761,Sr2Cu2O5,0.0
mp-1025258,ZnPPd5,0.0
mp-12112,CdP2,1.5218000000000005
mp-20730,HfCo2Sn,0.0
mvc-7635,CaCo3O7,0.24750000000000005
mp-11220,Sc2Al,0.0
mp-769048,Li3NbS4,2.0896
mp-1023266,Mg6AlGa,0.0
mp-1026579,Mg14GaSn,0.0
mp-531409,Li7Nb8O24,3.2105
mp-36779,PNO,4.9202
mvc-9990,CaV2O4,1.6522
mp-8126,YCuSi,0.0
mp-769721,LiMnBO3,1.9726
mp-3896,Y(SiIr)2,0.0
mp-36508,SnHgF6,2.4352
mp-695164,Ba8Ce7YHO24,2.0843
mp-975519,Rb,0.0
mp-1016243,Mg3Zn,0.0
mp-1063938,MnAs,0.0
mp-771200,LiCo3O4,0.0
mp-758527,K3ErSi3(HO5)2,4.6339999999999995
mvc-11432,CaCr2O4,2.5777
mp-2694,LaAl2,0.0
mp-19599,Ca3Cr2(SiO4)3,3.2478
mp-549687,K4CO4,1.4359
mp-695515,Na13Zr8Si9(PO16)3,4.418699999999999
mp-767032,Li2Mn4O5F3,0.34019999999999984
mp-765090,LiMnF3,3.1095
mp-531611,Mg(AlB14)2,0.7667999999999999
mp-1094246,MgSn5,0.0
mp-27378,S4(BrN)3,1.7194
mp-25519,FeO2,0.0
mvc-5143,ZnCrO2,0.0
mp-1025874,MoS2,1.4985
mp-27768,Co(BW)3,0.0
mp-1018796,Mg2Si,0.0
mp-553874,Ba2LaAg5S6,1.4623000000000004
mp-862601,RhI2,0.0
mp-10246,Na2PtS2,1.1356999999999997
mp-1077226,YbSnHg,0.0
mp-742819,MoH12Pd(NO)4,2.8621
mp-28133,Gd3CCl3,0.0
mp-1655,UIr2,0.0
mp-1096751,Ca2InHg,0.0
mp-568744,Ba2Cd3Bi4,0.0
mp-775985,V2NiO6,1.7371
mp-573030,Cs2LiNbS4,2.4582
mp-1009537,OsC,0.0
mp-752754,Hf2N2O,0.34830000000000005
mp-13365,SrZn2,0.0
mp-35015,NaBiSe2,0.7066000000000003
mvc-8320,MgCo4(CuO4)3,0.0
mp-32798,La2Se3,1.5389999999999997
mp-765450,Mn2Cd3O5,0.0
mp-675250,KBi2F7,3.5810000000000004
mp-780409,La4Al2O9,4.382099999999999
mvc-9533,Zn(SnO2)2,0.0
mp-866825,U(PO3)4,0.29859999999999953
mp-1097411,GaSnRu2,0.0
mp-556051,Rb2GeO3,3.0091
mp-19968,CaIn2Cu,0.0
mp-1096208,Zn2IrAu,0.08400000000000007
mp-641112,ReO2F3,3.2953
mp-676605,Y6O5F8,5.0318
mp-707942,B5H2Pb2O11,0.19349999999999976
mp-569811,Yb11GaSb9,0.6382000000000003
mp-765172,Fe3(OF)2,1.0278999999999998
mp-662600,La20Ti11(S22O3)2,0.2850999999999999
mp-771106,Dy(PO3)3,5.7384
mp-510460,CsLaZnTe3,1.5861
mvc-1294,Ba2YCo3O7,0.0
mp-1036393,CaMg14CuO16,0.012399999999999524
mp-1077275,ReN2,0.0
mp-22142,SiSe2,2.1693
mp-762239,Mn(CO3)2,1.2556999999999998
mp-862291,BeGaRh2,0.0
mvc-6433,Ca2TeWO6,1.4917000000000002
mp-17262,BaCu2(AsO4)2,0.0
mp-997086,SrAgO2,0.5637000000000001
mp-638206,P3CN4Cl7,3.7593
mp-1037996,CaYMg30O32,0.4532000000000007
mp-865553,CaEuIn2,0.0
mp-861730,Ba5Y3Br19,3.4205
mp-773374,Mn7V(PO4)12,0.0
mp-761568,Rb2CoO3,0.4669999999999999
mp-764887,Co3(PO4)2,2.5052000000000003
mvc-13423,Mg2CrSbO6,2.4274
mp-20559,Ga3Co,0.0
mp-1038248,Mg30MnNiO32,3.0418000000000003
mp-776625,Li3Ti2(PO4)3,0.0
mp-1020029,Li8PO3,0.0
mp-27346,Al2Hg3Cl8,2.4917
mp-1033880,Mg14NbCdO16,0.0
mvc-14096,Cu3(GeO3)4,0.0
mp-1033383,Mg6NbCO8,0.0
mp-1093615,Hf2MnOs,0.0
mp-12753,GdAl,0.06210000000000005
mp-1698,SrSn,0.0
mp-675556,Er2Zr8O19,2.4171
mp-22621,LaTiAgO4,1.465
mp-974754,NdPa3,0.0
mp-999396,Nb3Ni,0.0
mp-999474,NaHoSe2,1.8867
mp-982245,PbAuO3,0.0
mp-1076196,BaSr7Ti6Mn2O20,0.0
mp-979422,YGaAu2,0.0
mp-5038,CsGaS2,3.0547000000000004
mp-772018,Ba3YI9,2.6721000000000004
mp-752426,Li3SbS4,0.6929000000000003
mp-767407,Li5SbS,0.7834000000000003
mp-1075311,Mg3Si4,0.0
mp-1093893,ZrTaTc2,0.0
mp-5186,ScNiSn,0.0
mp-29226,Ca3Ga4O9,2.6392999999999995
mp-28894,Ba2P3Pd,0.0
mp-8640,Hf,0.0
mp-699265,BH6Ru3C6O19F4,0.08440000000000003
mp-26210,BiP2O7,0.0
mp-998949,TiPt,0.0
mvc-10587,Mn4ZnO9,0.0
mp-771351,FeCu(PO4)2,0.0
mp-778718,Li2Cr2O7,2.378
mp-775687,Li3Fe2F9,3.9426
mp-561531,Y2Si2O7,4.5955
mp-1073037,Mg2Si3,0.0
mp-778743,Li5Cu(PO4)2,1.7069
mp-913717,SmFe2,0.0
mp-770505,Li4Ti3Cr2Co3O16,0.0
mp-26285,LiBi2(PO4)3,0.27790000000000004
mp-626113,H4N2O3,2.7379
mp-643036,BaHBrO,4.2077
mvc-10297,CaHoCr2O6,0.6022000000000003
mp-1087551,CeSe2,0.6010000000000001
mp-25743,Cr3B7BrO13,2.4826
mp-974951,Rb3Hg,0.0
mp-11582,LiGaSe2,2.0656
mp-23846,KHF2,6.9611
mp-1021747,RbMg6V,0.0
mp-17702,Yb2SiO5,0.0
mp-6312,Sr2CuCO5,0.0032999999999998586
mp-1099321,CsMg14Si,0.0
mp-1022102,NaMg6Cu,0.0
mp-1920,Ni5P4,0.0
mp-980663,Yb2Mg,0.0
mp-21132,U(GeRh)2,0.0011999999999998678
mp-579556,CsHoZnTe3,1.3805000000000005
mp-19362,KFe(MoO4)2,2.4002
mp-625347,H6N4O9,0.3096
mp-862950,PmPd2Pb,0.0
mp-5495,Ag2PdO2,0.02090000000000014
mp-1079937,Pr3Si2,0.0
mp-768041,Li4MnCr3(PO4)4,1.9098
mp-16505,La3Al11,0.0
mp-1025578,Te2W3(SeS)2,0.0
mp-771996,Li3Mg2Fe19O32,1.1775000000000002
mp-672984,LiCu(PO3)4,0.0
mp-560064,SiO2,5.7315000000000005
mvc-5771,Mg2VIrO6,0.4298000000000002
mp-559766,Cs3LiF4,5.6548
mp-767435,P3(WO6)2,2.0989
mp-13265,ErAgSn,0.0
mp-1016999,SrGeO3,0.0
mp-1027173,TeMoWSeS2,0.0
mvc-6971,ZnCrP2O7,2.8958000000000004
mp-782,Te2Pd,0.0
mp-781615,HfCrO4,0.5763000000000003
mp-998915,K2O,0.6523000000000001
mp-27961,Zr3(Cu2Si3)2,0.0
mp-14070,RbAlO2,3.3716
mp-979614,Sm3Er,0.0
mp-763699,LiMn5O10,0.5369999999999999
mp-19149,NaNiO2,0.5083000000000002
mp-862820,PaSi3,0.0
mp-9916,NbCrSi,0.0
mp-2985,HoB2Ru3,0.0
mp-1002222,TlN,0.0
mp-694012,Ca3YAl3B4O15,4.4422
mp-29849,Ag3SnP7,0.9492000000000004
mp-1079262,Pt(NCl)2,0.0
mp-775931,Li2FeS2,0.13339999999999996
mp-763693,Li3Mn5O10,0.5882000000000001
mp-675470,YZr9O20,0.0
mvc-10479,CaW4O9,0.9723000000000006
mp-15225,Nd2Si2O7,4.8256000000000006
mp-862432,Sc2AgIr,0.0
mp-7260,P4S5,2.5252000000000003
mp-1808,Ti2Ni,0.0
mp-1075902,EuCuO3,0.0
mvc-9048,ZnCr2(PO5)2,0.0
mp-13413,ThCu5Sn,0.0
mp-669427,RbCuPO4,0.0
mp-554967,Li3Al(BO3)2,4.8248
mp-19136,TbFe3(BO3)4,2.3773000000000004
mp-554943,NiO,2.3008999999999995
mp-981935,Li5Mg,0.0
mp-772938,Li2Ta4O11,3.4741000000000004
mp-31842,Li3Fe3(PO4)4,2.0788
mp-865903,YbPmPt2,0.0
mp-559959,Rb2CoF4,0.0
mp-559711,Rb2Na2SiO4,3.083
mp-1026533,BaMg14Cd,0.0
mp-542885,SrCrO4,2.8468
mp-1022540,Mg6ZnSb,0.0
mp-755003,LaBiO3,2.6285
mp-29790,U3Te5,0.002299999999999969
mp-780731,Li2Cu(PO3)3,1.3742
mp-769518,Na3Mn2P2(CO7)2,0.1291
mp-558864,CrHgF6,1.4169999999999998
mp-19890,URe2,0.0
mp-569796,Nb2Cr4Si5,0.0
mp-704234,Ni(PO3)4,0.17400000000000004
mp-560649,KLa(PS3)2,2.6742000000000004
mp-558852,FeF3,2.8438
mp-6553,LiSc(SiO3)2,4.9719
mp-1156,GaSb,0.0
mp-557127,Cs6Na2Nb6H36O37,3.6183
mp-675275,Tl2CuF3,1.7879
mp-3476,P2PbO6,4.4803
mp-541545,BaVAsO6,2.6697
mp-775461,Li2V3FeO8,1.1613000000000002
mp-566792,Bi10(MoO8)3,2.7955
mp-16116,RbSm2CuSe4,1.0665999999999998
mp-697773,LiMo2(PO4)3,0.8795000000000002
mp-998150,CaTlF3,4.4830000000000005
mp-775184,Sc2(PO4)3,0.0
mp-985707,CoSn3,0.0
mp-998982,Ti3Sn,0.0
mvc-16029,Ca(TiS2)2,0.0
mp-849510,Mn6O7F5,0.0
mp-581457,Rb15Hg16,0.0
mvc-10030,LaCrBiO6,1.2056
mp-672303,CsNiC3(SN)3,0.5401
mp-1031043,RbLiMg6O7,0.04519999999999992
mp-867349,Dy2MgTl,0.0
mp-704600,LiTi4Mn(PO4)6,0.0
mp-1033762,Mg14CdBiO16,0.0
mp-559231,Se2S(NCl)2,1.6977
mvc-7971,ZnNiBiO5,0.0
mp-9312,PrNiC2,0.0
mp-1098695,BaMg30MnO32,1.4774000000000005
mp-1036879,Mg30CrNiO32,1.1735999999999995
mvc-2108,AlCr4(CuO4)3,0.0
mp-763268,MnOF,0.0
mp-690635,K2NaVOF5,2.7864
mp-769571,Ba2Ta2O7,2.9228999999999994
mp-680384,Sr10Ga6O19,3.0095
mp-978563,SmHoIn2,0.0
mp-1076204,La7SmCr2(Fe3O10)2,0.8217999999999996
mp-1018120,TmSb2,0.0
mp-973461,Hg3C,0.0
mp-756177,Li4ZrNb(TeO6)2,0.0
mp-866539,Ca2SnS4,0.0
mp-707897,Ca4Al2H22CO20,4.5634
mp-1063661,MgNi3,0.0
mp-22367,PdPbO2,0.0
mp-1026747,CsCeMg14,0.0
mp-759071,LiSb(PO3)4,4.3011
mp-1076719,LaCrO3,1.9039
mp-1099225,CsMg6BO7,1.5865
mp-863919,Li9V5(Si5O16)2,1.7645
mp-1016225,Mg3Cr,0.0
mp-867969,LiGdHg2,0.0
mp-1026532,BaHfMg14,0.0
mp-5640,ErSnAu,0.007200000000000095
mp-865122,NaNdTl2,0.0
mp-1034164,SrMg14TiO16,0.0
mp-1095228,PuB2C,0.0
mp-613927,KCeCuTe4,0.0
mp-1079859,CaFeAsF,0.0
mp-980198,TmLuZn2,0.0
mvc-12031,MgFe2O5,0.0
mp-559419,Ba9LiSi10C(ClO4)7,4.6715
mp-542760,FeP(H2O3)2,2.7315
mp-27419,LiBiF6,2.5394
mp-95,Sr,0.0
mp-1017581,LaPd3C,0.0
mp-22961,Li2ZnCl4,4.1422
mp-505364,CdPH6NO5,3.2768
mp-685618,FeAgTe2,0.0
mp-1097302,Ti2NbRh,0.1048
mp-550,Al12Mo,0.06459999999999955
mp-11843,DyAl,0.0
mp-4904,Pr(SiRu)2,0.0
mp-1078836,KI,3.7152
mp-763960,VOF2,1.7162000000000002
mp-16597,K3ErSi2O7,3.7372000000000014
mp-568195,U6Mn,0.0
mp-1021364,KMg6Nb,0.0
mp-31909,Ta2Mn3O8,2.3533000000000004
mp-1240,HoS,0.0
mp-776058,Cr2Fe3Co(PO4)6,1.7352
mp-554461,K(OsO3)2,0.0
mp-773276,Li2Mn3O6,0.0
mp-1007922,CuI,0.9427000000000004
mp-769799,Na2FeO3,0.05099999999999999
mp-571253,Er(Al3Ni)3,0.0
mp-766724,Li3Ni5OF11,3.1784
mvc-15392,BiO2,0.0
mp-32054,MoP2O7,1.2949
mp-569367,HoGeIr,0.0
mp-1069444,Eu(AsPd)2,0.0
mp-1027851,RbMg14Zr,0.0
mp-546551,Na4CO4,3.3335
mp-743530,KCrH24(SO10)2,3.7063
mp-12605,ReSi2,0.0
mp-776201,Zr2N2O,0.9145
mp-21895,Na15Pb4,0.0
mvc-6927,CaV2O4,1.2181000000000002
mp-559269,TiPO4,0.06289999999999996
mp-14011,Al(PO3)3,5.6178
mp-1022844,YMg6Sn,0.0
mp-764139,Li3V3P8O29,1.2772
mvc-10195,HoMgMn2O6,0.0
mp-1019524,Ba3P6(N4O3)2,4.5466000000000015
mp-761374,Li3V2(PO4)3,1.5122999999999998
mp-24871,K3Co(NO2)6,2.6833
mp-675469,Zr3Sc4O12,3.9744
mp-14996,Na2Eu2Ti3O10,0.0
mp-1019733,Eu(NO3)3,0.0
mp-18982,Sr3NiIrO6,0.0
mp-1096189,LiInCu2,0.8533000000000004
mvc-9736,MgTi2O4,0.0
mp-1013707,Ba3PN,0.0
mp-1018710,Hf2TaN3,0.0
mp-766753,LiSi4NiO10,1.4342
mp-573635,Ba2In2Se5,1.3945
mp-29703,BaSi7N10,4.113499999999998
mp-20785,Nd(FeGe)2,0.0015000000000000568
mp-1076906,GdRh,0.0
mp-699587,MnSi6Pb8O21,3.2441000000000004
mp-540267,CrP2O7,0.015900000000000025
mp-505402,Cu2WO4,1.3749000000000002
mp-18807,V2Zn2O7,2.3404000000000003
mp-29260,Ti(SeO3)2,2.4445
mp-770847,La2Cd2O5,1.3022000000000005
mp-20992,Ce3InC,0.01980000000000004
mp-1029148,Te2MoWSeS,0.0
mp-1078841,LaMgPd,0.0
mp-561012,Sr3Cu3(PO4)4,0.4943999999999997
mp-561940,Na3Co2SbO6,0.2322999999999995
mp-1070925,LaPRh,0.0
mp-504218,Li6Fe3P8O29,0.1699
mp-39259,BaLaZnRuO6,0.4774000000000002
mp-1021668,In3Sb,0.0
mp-20943,TePb,0.0
mp-20027,FeP2,0.4338999999999995
mp-30675,Ti5Ga4,0.0
mp-460,PrZn,0.0
mp-554200,Sr2YCu3(PbO4)2,0.0
mp-22233,Zr4Co4Ge7,0.0
mp-1002209,ReN,0.0
mp-673824,Fe(NiS2)2,0.0
mp-721098,Ca3SiH30CSO25,4.4162
mp-555844,MnSbS2Cl,0.8681999999999999
mp-558538,HoSeO3F,4.2961
mvc-15853,MgMnO3,0.536
mp-566438,Na3VB6O13,3.4863
mp-985595,Zn6HO6,0.0
mp-1033065,CsMg6AlO8,0.0
mp-1016825,HfMgO3,0.7745000000000002
mp-765359,Li5VO4F,1.48
mp-850886,Fe4O5F3,0.0
mp-1096174,YZn2Cd,0.0
mp-763317,LiVGeO5,1.9325
mp-766881,H7SIO10,2.3634
mp-1095736,BeNbCo2,0.0
mvc-1755,AlFe3Se2ClO8,2.3191
mp-568484,La3CBr5,2.2338000000000005
mp-566926,Cr2PBrO4,2.1291999999999995
mp-30126,Ba(BS2)2,2.7399
mp-1014373,CrN2,0.0
mp-20689,Nb3B2,0.0
mp-1023402,Mg6ZrAl,0.0
mp-1072113,NbSe2,0.0
mp-5433,Pr3RuO7,0.4142000000000001
mp-773612,Li4MnFe3(BO3)4,0.06219999999999981
mp-638445,C4SO2,1.4474
mp-10996,Yb(MgSb)2,0.6840000000000002
mp-1030333,Te6Mo3WS2,0.011800000000000031
mp-625583,H7BrO3,3.7349
mvc-8615,MnNiP2O9,0.0
mp-30272,U2Al19Co6,0.0
mp-715460,CoO,1.0476
mp-9753,Na2NbF6,0.2885
mp-20632,UGa2,0.0
mp-862258,Sc2ZnPt,0.0
mp-22236,In3Co,0.0
mp-760684,LiTeHO4,1.4912
mp-554641,Sr3Mg(SiO4)2,4.6846
mp-1068325,Sr(InHg)2,0.0
mp-1074891,Mg7Si4,0.0
mp-762779,Li4Mn3P3O12F,3.5760000000000005
mp-1096542,Ca2PdPt,1.2008
mp-1038409,Mg30MnAlO32,0.3788
mp-559646,KCS(OF)3,5.2646
mp-1030873,RbMg6SiO8,0.0
mvc-13402,CaLa2SnO6,3.9986
mp-581405,ZnS,2.0207
mp-769912,Rb2Ni2O3,1.6966
mp-554059,Sr2UZnO6,1.8036000000000003
mp-1038993,CaMg2,0.0
mp-29744,RbMnSe2,0.0
mp-771534,Li2Cr3O6,0.0
mp-2322,YAl2,0.0
mp-865226,LuMgHg2,0.0
mp-1096291,Sc2TlAu,0.0
mp-778500,Li5TiMn9O20,0.04679999999999973
mp-22583,KInP2S7,2.0423
mp-18898,Sr(NiO2)4,0.4144000000000001
mp-12704,TbGaPd,0.0
mp-972380,Tb3ReB7,0.0
mp-1100156,RbMg6Sb,0.0
mp-554833,CoAs4F18,3.4338
mp-4922,MnAlNi2,0.043799999999999166
mp-8301,Gd2CF2,0.7328000000000001
mp-9479,Mg(AlSe2)2,1.053
mp-780680,LiV2P4(HO8)2,1.1044
mp-699136,NaAlH2CO5,5.0440000000000005
mvc-15440,Zn(NiO2)2,0.0
mp-1095742,Nb2VMo,0.0
mp-554296,Er4Mo4O11,0.4500000000000002
mp-554971,ZrFeF6,0.0
mp-1016570,BaMg6Ga,0.0
mp-1396,Rb2Te,1.7135000000000002
mp-864946,MnCuPd2,0.0
mp-767953,Li2Si3NiO8,4.393199999999998
mp-1039543,MgCd2,0.0
mp-767808,K2Li3CrO4,1.2522000000000002
mp-1095552,La(Ge2Rh3)2,0.0
mvc-5088,Mg(SnO2)2,1.3005000000000004
mvc-8595,Ti2Zn(PO5)2,2.4001
mp-628967,SrCrP2O7,3.0068999999999995
mp-604420,LiAlSiH2O5,4.4339
mp-779210,Li4Mn3Fe2Cu3O16,0.0
mp-761442,Li6Fe3Co(PO4)6,1.7217999999999998
mp-2120,HoAg2,0.0
mp-849442,Li2Mn(Si2O5)2,3.5734000000000004
mp-7555,LiMgSnPd,0.0
mp-1026794,LiMg14Mo,0.0
mp-11831,YbZnSn,0.0
mp-32415,VP2O7,1.4560000000000002
mp-676573,Nb2Pb3O8,0.0461999999999998
mp-10079,TbAgGe,0.0
mp-600154,K2CuH8(CO3)4,0.7686999999999999
mp-1793,Zr3Te,0.0
mp-861091,Li5NiP3O11,3.5263
mp-763494,Li3V2(O2F)2,0.9199000000000002
mp-25587,LiNiO2,0.3160000000000003
mp-1207,NdFe2,0.012199999999999987
mp-31850,Li3Fe3(PO4)4,2.3456
mp-1036923,Mg30CoBiO32,1.2084
mp-12527,Ti2Te2P,0.0
mp-1022043,HfMg6Co,0.0
mp-561083,Na3Bi(PO4)2,4.2075
mp-30287,LuPS4,2.1701
mp-1079977,CeCdPd,0.0
mp-27719,Al2CuO4,0.0
mp-865147,Be2CuRu,0.0
mp-541378,CsBiS2,1.7469
mp-1071623,CuSnAu,0.0
mp-1062935,LaHg2,0.0
mp-565371,K2MoO8,2.0176
mp-1095872,Y2BePb,0.0
mp-764875,Fe3(PO4)2,3.0130000000000003
mvc-11647,V2O5,2.4243
mp-7475,La2S3,1.0341999999999991
mp-707129,Ca3B6(H4O5)4,5.3889
mp-1097134,La2CdAg,0.0
mp-637223,MnFeC5N6O,1.3475
mp-31114,Ho3GaO6,3.5583
mp-1079347,La(AsRh)2,0.0
mp-762169,Li4Co3Ni3(SbO8)2,0.05799999999999982
mp-29614,KEu2I5,1.3621000000000003
mp-1077013,SmSi2,0.0
mp-1096151,Ca2ZnGe,0.0021999999999997573
mvc-12745,Rb6Al4(Sb2O7)3,0.0
mp-766117,Sn2N2O,0.5638000000000005
mp-570300,MnTlCl3,1.9325000000000008
mp-1080149,Yb(CuS)2,1.0754
mp-10212,ScGe2,0.0
mp-1436,EuAg2,0.012399999999999968
mp-2924,Ho(SiNi)2,0.0
mp-1047,Ca3N2,0.9554
mp-776908,RbLiMn3O4,0.6859999999999999
mp-952967,Fe7Se3,0.0
mvc-14687,YSbO3,1.3025000000000002
mp-764151,Co3(OF2)2,0.0
mp-568556,Mg2B24C,2.4909
mvc-10663,Be3Si3(NiO6)2,0.0
mp-773603,Na3V(BO3)2,2.0938000000000003
mp-6223,DyNi2B2C,0.0
mp-20289,NaInS2,1.9001
mp-775164,Li2NbCr3O8,2.2504
mp-649654,KVS2O9,1.8158
mp-705344,CdFeSn(PO4)3,2.5692
mp-567798,Hg4AsI5,0.9168
mp-762474,Li4Ti2Nb3Fe3O16,0.41990000000000016
mp-562621,B10(Pb2O7)3,3.259
mp-25646,V2O5,1.6586
mp-866188,TlCdRh2,0.0
mp-571263,KIn9Co2,0.0
mp-778026,Li2MnF4,4.0319
mp-680552,Nd3Sn13Rh4,0.0
mp-1101048,TiFe2O5,1.9959
mp-866100,Er2CuOs,0.0
mp-24901,CrPb2O5,1.8218
mp-505807,Nd5Co21B4,0.0
mp-31769,Sr(FeO2)2,1.8882
mp-774309,Li2MnV(P2O7)2,0.3634
mp-989455,LaWN3,0.1299999999999999
mp-1028295,Mg14SiSn,0.0
mp-697540,K3GeH2NO3,3.1785
mp-680220,Sr(Ni5P3)2,0.0
mvc-5217,Ca(CoO2)2,0.5387
mp-919914,TiMn2,0.0
mp-2306,LaMg3,0.0
mp-638650,Pr7FeI12,0.0
mp-761627,Li7Mn7(P4O17)2,1.0261999999999998
mp-488,CuSe,0.0
mp-8418,ZrCoP,0.1333000000000002
mp-10116,UB2Ir3,0.0
mp-1073705,MgSi,0.0
mp-25762,LaFeGe2O7,2.645
mp-705156,Co6Te3(ClO6)2,2.2157000000000004
mp-1096952,Eu2SnSe5,0.0
mp-27970,K2CdN12,2.911
mp-1016095,LiMn2O4,0.0
mp-1027903,Mg14ZnC,0.0
mp-565750,K3V(SO)2,2.4361
mp-690946,YbZr7Si7PO32,0.0
mp-21067,ScInCu2,0.033199999999999896
mp-669340,CdI2,2.3289
mp-570316,B,0.0
mp-770504,Li24MnCr11O36,0.8510999999999997
mp-585189,LiMn4(PO4)3,3.3405
mp-770169,Li2MnV(PO4)3,0.9019
mp-1094102,TiCo3O8,0.0
mp-1022813,LiYMg6,0.0
mp-1080552,SrHg3,0.0
mp-867739,Nb3GeS6,0.0
mp-641365,PbWO4,2.9279999999999995
mp-566868,RbV3Cd3O11,2.978
mp-999552,MnGaFeCo,0.0
mp-566887,Fe3B7ClO13,2.8149000000000006
mp-3663,Ta4GaSe8,0.0
mp-631543,AlInB,0.0
mp-1078902,ThAlPt,0.0
mp-561535,NaLuP2O7,5.6852
mp-765004,Li3Fe2(CO4)2,2.0546
mp-1016587,Mg6NbW,0.0
mp-1032600,SrYMg6O8,0.19539999999999927
mp-778060,Li2VF4,2.7537000000000003
mp-541244,CeVO4,0.03479999999999972
mp-568584,N2,6.9553
mp-1028922,MoW3(Se3S)2,0.6959
mp-961702,LaSbPt,0.0
mp-19255,TiFe2O5,1.7660999999999998
mp-540853,Ti3Ni3O,0.0
mp-680067,Ag2CSNClO4,2.5329
mp-641804,Yb11(Ce2Se11)2,0.0
mp-763586,LiV2(PO3)5,2.7701
mp-771784,Li3Mg(NiO2)4,0.0
mp-850110,Li2Mn(SiO3)2,3.4868999999999994
mp-770611,Li2CoH8(SO6)2,3.2881
mp-8848,TaFeTe3,0.0
mp-776061,Li4Ti3Mn3Nb2O16,1.0360999999999998
mp-505260,Te10Mo3I10,1.1818
mp-977555,MgNbRh2,0.0
mp-755349,Cu3OF5,0.0
mp-555100,NbBiO4,2.5161
mp-642279,U6Fe16Si7,0.0
mp-1078170,Mg(AlS2)2,2.015
mp-22667,UFeS3,0.0050000000000007825
mp-567734,AlAs3(SeCl)4,2.3859
mp-2210,ZrCu,0.01869999999999994
mvc-7956,MgCu3(BiO3)4,0.0
mp-654900,CuH9C4NO6,0.0
mp-649781,MnP4O11,3.9973
mvc-1203,Ba2Bi3O7,0.0
mp-42264,K2MnH4(Cl2O)2,3.9739
mp-1094527,MgSb2,0.0
mp-8697,ScBO3,4.118
mvc-10340,CaHo(MoO3)2,1.1409000000000002
mp-865299,TmZnRh2,0.0
mp-673814,La3U2O10,0.13170000000000126
mp-765227,Li6Sn5(P2O7)4,2.6673000000000004
mp-865745,GdCdHg2,0.0
mp-1022627,YMg6Cr,0.0
mp-776813,LiMnF4,1.1844
mp-9548,GeAs,0.7288999999999999
mp-600050,SiO2,5.8144
mp-581738,Cs3BiSe3,2.0207
mp-865316,Gd2MgTl,0.0
mp-12147,Ca3Al2O6,4.2749
mp-1038214,Mg30NbAlO32,0.12100000000000045
mp-977395,YbFeB4,0.0
mp-676430,Ag9(SI)4,0.0
mp-1687,BaPd2,0.0
mp-1080068,CuCO3,0.039800000000000064
mvc-566,Sr2YMn2GaO7,0.0
mp-758025,Ba3(RhO2)14,0.0
mp-1025386,HgPPt5,0.0
mp-19984,TbB4,0.0
mp-776875,Ta2CrNO5,1.4326000000000003
mp-510581,PrNiSnH2,0.0
mp-505172,NaZrCuSe3,0.30420000000000025
mp-770296,La4Zn3O9,1.7738000000000005
mp-560750,CoTeMoO6,2.5156000000000005
mvc-1694,AlNi3Se2ClO8,1.5995999999999997
mp-18832,K2VO2F3,2.9836
mp-763130,LiNiPO4,3.1501
mvc-7583,MgCo3O7,0.0
mp-990207,Mn3N2,0.0
mp-567769,Ca(SiPd)2,0.0
mp-775259,Li2Mn3F8,3.3773
mp-31665,LiCr2(PO4)3,0.2843
mp-31907,Mn(ReO4)2,0.23529999999999984
mp-559956,Pr5O9,0.0
mp-754869,Sr(IO3)2,3.8321
mp-12854,ZnCu2GeTe4,0.0
mp-775037,Li3V4SnO12,1.3980000000000006
mp-696649,KH2I3O,1.8902
mp-756468,CaY2O4,3.1247
mp-1001824,IrC,0.0
mp-685242,Sr7Al12O25,1.1673