mpid,formula,gap pbe
mp-531656,Ta32Cu17O96,0.006600000000000161
mp-776046,TiFe3Sb2(PO4)6,1.1029999999999998
mp-767008,Li2Si2WO7,2.7995000000000005
mp-570412,Yb(NiP)2,0.0
mp-777052,LiV2OF5,1.834
mp-16107,Rb3P6N11,3.9206
mvc-10130,V2ZnO4,1.3081
mp-556509,UTiNb2O10,1.9794
mp-997029,TlCuO2,0.0
mp-565979,MnBiAsO5,2.382
mp-14389,Na3AlP8O23,5.5709
mp-761768,Mg10FeO11,3.5480000000000014
mp-21542,K2CeTa5O15,0.0034000000000000696
mp-1073927,Mg6Si5,0.0
mvc-11655,MgMn4O8,0.16349999999999998
mp-985594,NaAg(CO2)2,2.5052
mp-867253,LiZn2Ir,0.0
mp-1098563,HfMg30NbO32,0.0
mp-27,Si,0.0
mp-30457,LuNiBi,0.013399999999999856
mp-30821,LiAl2Rh,0.0
mp-30572,Hf2Ga,0.008899999999999686
mp-23568,XeN2(OF4)2,2.1924
mp-20247,Dy(Fe2Ge)2,0.012500000000000178
mp-560102,RbUSO6F,2.1799
mp-557479,V2CoO6,2.0122
mp-1023932,Te2MoWS2,0.0
mp-704962,Li3Mn3(PO4)4,0.3909
mp-1028315,Mg14VSi,0.0
mp-1423,HoC2,0.0
mp-567939,CsSmCl3,0.0
mp-567414,BiAuCl6,1.6272
mp-864896,Zr2CoTc,0.0
mp-779979,Hf2N2O,2.0202
mp-561291,SiO2,5.265300000000001
mp-23160,ThBr4,2.9258
mp-556804,PrAl3(BO3)4,5.068600000000001
mp-983519,SnH22C6(NCl2)2,4.2924000000000015
mvc-1236,MgFeP2O7,3.8048
mp-998457,CsSnF3,3.7522
mp-1033883,BaHfMg14O16,0.0
mp-771745,Li3Mn3O8,0.0
mp-23293,TbCl3,3.7957
mp-756638,NbRhO4,0.8726000000000003
mp-28795,LaSi2Ru,0.0
mp-28219,TlCdBr3,2.7460000000000004
mp-1073745,MgSi,0.0
mp-30438,Be2Cr,0.0
mp-769393,DySeO3,1.7860999999999998
mp-625739,Al(HO)3,4.8633
mp-631540,NiBTe,0.0
mp-32395,Li2Ni3(P2O7)2,3.7623
mvc-4273,Ca3Si4(AgO7)2,0.7143999999999999
mp-1003483,CaMn4O8,0.5121000000000002
mp-626751,Mo3(HO5)2,0.0
mp-1084832,Fe5Co3,0.0
mp-780403,NaCu3O2,1.2689
mp-975646,PrZnSbO,0.12950000000000014
mp-17886,K2Al2Sb3,0.9634
mp-1029118,Te2Mo(WS2)3,0.0
mp-865838,LiSiRu2,0.0
mp-17715,SrTa2O6,3.2289999999999996
mp-698610,Rb(WO3)6,0.0
mp-542553,Cu3As4H18C8Br3(NO2)2,2.8057000000000003
mvc-3227,ZnCoPO5,0.1221000000000001
mp-698183,Mg3P2(H22O15)2,4.8454
mp-14223,Ba2YbSbO6,0.0
mp-755300,TiO,0.0
mp-676414,Al4CO,0.0
mvc-9201,MgTiMn(PO4)3,0.0
mp-15177,Ho4C7,0.0
mvc-3917,Zn3Si3(MoO6)2,1.9207
mp-640551,Ba4Si23,0.0
mp-33670,NbIrS4,0.0
mp-1007664,InPd3,0.0
mp-27702,InClO,2.3645
mp-1572,GaSe,1.2405999999999997
mp-995221,H2CSO4,5.8997
mp-554625,SbS2NCl8,1.8083
mp-765782,VF5,3.1935
mp-676979,Mg2TiO4,3.2670000000000003
mp-1098884,Mg30CoSnO32,0.0
mp-571438,Be12V,0.0
mp-1034470,SrMg14CO16,0.7107000000000001
mp-1031146,LiMg6CO8,0.0
mp-705342,Fe5(P3O11)2,0.0
mp-1078732,V(NF2)3,0.0
mp-1098815,BaMg30FeO32,2.8933
mp-623590,RbV2SeO7,2.0099
mp-760400,Na5BiO5,0.8502000000000003
mp-11525,TmNi,0.0
mp-1096349,MnTlPd2,0.0
mp-1099818,KWO3,0.0
mp-1036759,Mg30VCO32,1.3147000000000002
mp-667377,SiO2,5.5763
mp-1069790,U2RhC2,0.0
mp-760991,NaNb2O4,0.0
mp-13065,Ho2O3,4.2394
mp-14926,Sr2ScF7,6.3649999999999975
mp-649177,ReTe5O6F25,2.1627
mp-25787,V2O3,0.019600000000000502
mp-685196,Tl2Ag16Te11,0.0
mp-1006885,KNdS2,2.2595
mp-773573,V2Sb(PO4)3,0.0
mp-773703,NaLi5Mn2P2(CO7)2,3.532
mp-1022970,LiMg6Mn,0.0
mp-763462,Li2Co3(SiO4)2,2.5136
mp-580287,Zr3Cu,0.0
mp-16763,KYTe2,1.3029000000000002
mp-554711,CSCl2,2.9369
mp-770008,Co2(SO4)3,0.4141
mp-776745,Li4Ti3V2Cr4O18,1.5461
mvc-11865,CaCoSi2O7,0.0
mp-763694,Li13Mn2O12,0.0
mp-557935,Dy2Cu(BO2)8,0.8659000000000003
mp-560550,BaBi2(B2O5)2,3.3498
mp-570943,LaFe5H7,0.0
mp-24733,NaZnP3(H4O5)2,5.668799999999999
mp-696994,Zr2H16SN3(O2F3)3,4.0768
mvc-499,BaMg(SnO2)4,0.0
mp-1009077,FeH,0.0
mp-976017,Li3Co,0.0
mp-27953,Mo2N,0.0
mp-1030614,Te6Mo3WSe2,0.3473000000000006
mp-16565,CdCu2SnSe4,0.0
mp-643203,Cu6PbSe2Cl5O8,0.0
mp-558269,Ce2SiS5,0.0
mp-4289,Er2Si3Rh,0.0
mp-861063,LiNi(PO3)3,4.6493
mp-764705,Li2V(OF)2,1.3206
mp-1094984,Ce2Mg,0.0
mp-5443,Nb2SnC,0.0
mp-11166,BaZnCO3F2,4.7734
mp-26407,Li2SnP2O7,4.118600000000002
mp-24822,Na5Al3H14,2.9042
mp-19013,LiV2O5,0.27370000000000005
mp-558713,LiAlSiO4,4.6935
mp-1099672,Sr5Ca3Mn7FeO20,0.0
mp-691151,V5CoO15,0.613
mp-15123,Th(AlC)4,0.0
mp-569159,Yb8Ge3Sb5,0.0
mp-980189,NaYb3,0.0
mp-1093551,MgPd2Au,0.2454000000000001
mp-761307,TiV2O7,2.0311
mp-685124,Ni19Se20,0.0
mp-744747,V2P2H4O11,1.7056999999999998
mp-30885,YZn5,0.0
mp-761644,Li2Fe3Si3O10,3.0276000000000005
mp-22416,SmTiO3,0.0
mp-15649,As2Ir,0.8136999999999999
mp-975784,PrY3,0.0
mp-976765,Na3Au,0.0
mp-777672,LiFeF3,3.0807
mp-652407,Ru(CO)4,2.5855
mp-3056,NaTlO2,0.6210999999999998
mp-773197,Li2Cr4O13,1.4047
mp-559170,V2Co(PO5)2,1.6270000000000002
mvc-7545,SnAs2O7,1.1983
mp-978507,SmTh3,0.0
mp-21644,BaNb8O14,0.20310000000000009
mp-3303,Ce(AlGa)2,0.0
mp-1072660,VAs2,0.0036999999999993705
mp-559332,BiTeIO3,2.3329
mp-15206,Ho2Si5Ni3,0.0
mp-780678,Li4Co2Ni3O10,0.0
mp-30589,LaCu4,0.0
mp-625145,H7ClO3,4.1696
mp-985297,Ag3Rh,0.0
mp-622482,BaY2CoO5,2.0677
mp-763158,Mn(Bi5O8)5,1.3701999999999996
mp-1098834,HfMg30FeO32,0.0
mp-979041,Tm(AlC)3,0.057500000000000114
mp-1074041,Mg9Si5,0.0
mp-8046,Ta4N5,0.0
mvc-2,Nb2Zn2BiO8,0.0
mp-753102,La2Bi4O9,1.7390999999999996
mp-1078671,Sr2CaWO6,3.4601000000000006
mp-8799,RbNaS,2.5531
mp-865172,YbTaRu2,0.0
mp-1069346,PrVO3,0.0
mp-16484,Ce2Al2Co15,0.008099999999999774
mp-765813,Li2FeNiO4,0.0
mp-754875,TbSi2Rh3,0.0
mp-1080154,Te2Mo3W(Se2S)2,0.07290000000000019
mvc-655,Mn(WO4)2,0.6212999999999997
mp-867191,Sm2TlCd,0.0
mp-25708,Bi2MoO6,2.1800999999999995
mp-574021,Ce2ZnNi2,0.0
mvc-3279,VPO5,1.9767
mp-705358,Mo2P3O13,0.0971
mp-769167,EuYO2,0.0
mp-540208,Cr3(P2O7)2,1.1186
mp-1035299,HfMg14CuO16,0.0
mp-680306,Rb14Si10O17,1.4054
mp-862424,Sc2TcNi,0.0
mp-1095553,TaCoP,0.0
mp-616718,K3Np(MoO5)2,0.3597000000000001
mp-626062,U3(HO5)2,1.9927
mp-851050,Ca9Co(PO4)7,0.8428000000000002
mp-744823,CsMnH24(SO10)2,1.8193
mp-542096,CrPS4,0.8284000000000002
mp-27162,Sc3Co,0.0
mp-1093775,NaCaHg2,0.0
mp-1098724,Mg30MnZnO32,2.768
mp-744404,K2FeH4(SO5)2,0.9536
mp-759928,K3TbSi3(HO5)2,4.603999999999999
mp-1031389,KRbMg6O7,0.0
mp-6850,Ba2CeC3O9F,0.1889999999999992
mp-1094607,Li2Mg,0.0
mp-557920,Zn3(PO4)2,3.4139
mp-1032694,Mg6MnBO8,0.0
mp-1097357,Y2CuPt,0.0
mp-690727,H2PbO2,2.5105
mp-762326,Li2CuF5,0.5465
mp-541513,NaGdTiO4,2.5701
mp-752673,Dy2CuO4,0.0
mp-1096158,TiMn2Re,0.0
mp-556400,Cs2K2TeO5,2.0249
mp-1008487,BW,0.0
mp-1079633,Fe(BrN)2,0.0
mp-622197,Cs2PtS6(O3F)6,2.1952
mp-1019549,BaMg2Si2O7,4.5563
mp-772280,Li2Fe3SbO8,1.8902
mp-698710,Sr4La4Mn7CuO24,0.0
mp-22029,MnNi2Ge,0.0
mp-1017488,RbLaMg6,0.0
mp-17751,Y5Ge3,0.0
mp-16947,LiAlGeO4,3.1826
mp-1025335,Lu(TiGa2)2,0.0
mp-568611,KCuPSe3,1.0053
mp-767548,Ti4(Ni5O8)3,1.2512999999999996
mp-581913,Sr11(Ge2N3)2,0.18009999999999993
mp-691128,Sr2V3O9,1.7399
mp-997033,AuBrO2,0.708
mp-39144,SrLiPrTeO6,3.307300000000001
mp-17174,K3(Cu4S3)2,0.0043999999999995145
mp-996,OsO2,0.0
mp-867681,Li5Si2BiO8,2.7601
mvc-653,YAg(WO4)2,2.2153
mp-614628,Na3Ca(BO2)5,4.4278
mp-3352,ErSiPd2,0.0
mvc-1875,YCu3(SnO3)4,0.0
mp-753845,LiCuO2,0.2729999999999999
mp-18254,Nb7P4,0.0013999999999994015
mp-762791,LiCrPO4F,1.9798
mp-743936,KV2H2C8N2(OF)5,0.5962
mp-863961,SrNi2P2(H2O5)2,3.8951
mp-9820,CsAsF6,5.2381
mp-5618,Mg2As2O7,3.0403
mp-585299,Li3Co3(PO4)4,1.1451000000000002
mp-1030732,TeMoSe,0.3348
mp-39208,BaLaTiCrO6,1.3000999999999996
mp-20397,Sr(InTe2)2,0.8837999999999999
mp-1030158,Te4MoW3Se4,0.07739999999999991
mp-761869,Sr3Li3La5O12,3.0223000000000004
mp-983410,Ho2CuPd,0.0
mvc-10183,MnO2,0.0
mp-675881,RbBiF4,3.4703
mvc-9966,CaLaCrCoO6,0.0
mp-1095040,VFeAs,0.0
mp-780440,Li8MnFe7(BO3)8,3.1364
mp-1027972,NaMg14Zn,0.0
mp-1094052,Sm3AlN,0.0
mp-850881,Li2Mn3(BO3)3,0.7268999999999999
mp-650280,Cs2As8S13,1.5194
mp-558919,Rb2CoS2,0.0
mp-979985,YbAu3,0.0
mp-559628,NaNp3F13,0.0036000000000000476
mp-743771,Ca8V7ZnBiO28,3.4528
mvc-12616,Zn(NiO2)2,0.0
mp-557680,NbAgO3,0.8148999999999997
mp-759553,As3H12C4S5N,1.9453
mp-850228,Li6Mn5Fe(BO3)6,2.6117000000000004
mp-778595,V2O3F,0.6941000000000002
mvc-8376,CaCo2O5,0.242
mp-775136,Li4Cr3Co3(TeO8)2,0.0
mp-620369,TaAg7S6,0.5110000000000001
mp-706335,Mg3P4H28(NO12)2,5.2443
mp-978506,SmSiO3,0.0
mp-777038,LiMnPO4,3.2826000000000004
mp-763874,KV6O14,1.0927
mp-1975,TmN,0.15669999999999984
mp-762875,Na5FeHO4,1.2346
mp-648140,Na2Al2S3(Cl4O3)2,2.5887
mp-566061,Li2Cu(WO4)2,0.4236999999999997
mp-999130,TbNi,0.0
mp-695962,LiAl(H2N)4,0.9087
mp-567853,PuPt4,0.0
mp-541460,Ce4Si2Se3O7,0.0011999999999998678
mp-542833,Zn3(BO3)2,2.6968
mp-1028160,Mg14MnFe,0.0
mp-542155,TlNiO3,0.03190000000000026
mp-1029075,Te3MoWSe,0.006299999999999972
mp-30799,NdTlPd,0.0
mp-675406,Yb(HoS2)2,2.1723
mp-15216,K2TaAgS4,2.5248
mp-557632,K2LiBO3,3.6258
mp-1093686,ZrGaRu2,0.0
mp-861945,Ag2F3,0.0
mp-777143,LiMnP2O7,0.3722000000000001
mp-7795,RbSnS2,0.0
mp-757490,LiSnPO4,3.3675
mp-9783,Ba3(AsO4)2,3.9060000000000006
mp-6058,K2NaScF6,6.757299999999999
mp-978908,TbTmRh2,0.0
mp-767700,LiVCrP2(O4F)2,1.2648
mp-1020598,Y4Si2S3O7,2.4610000000000003
mp-763594,LiCoSiO4,0.7974000000000006
mp-1025024,LuB2Rh3,0.0
mp-23019,UNCl,0.0
mp-556024,Na2TiF6,4.7506
mp-626411,In(HO)3,2.7772
mp-779881,Fe4OF7,1.6630000000000005
mp-1094245,MgSn5,0.0
mp-765011,V7(O2F3)3,0.22499999999999964
mp-849424,LiCu2P3(HO5)2,1.3990000000000005
mp-580941,AgI,1.3762
mp-780897,Li2Mn2P4H6O17,0.8574
mp-762298,Li2CrSiO4,1.9818
mp-775676,Li4TiFe4(Co2O9)2,0.0
mp-29276,Cd2P6O17,4.2535
mp-1038568,Mg30NbBiO32,0.0067000000000003715
mp-775398,Li4Mn3V3(NiO8)2,0.9386
mp-770363,Li24Mn5Cr7O36,1.0885
mp-772863,Na2Ge2O5,3.0053
mp-24004,Zn2PHO5,3.0356
mp-21547,Na3InSb2,0.28480000000000016
mp-761449,Li4Mn3Cr3(FeO8)2,0.6236000000000002
mp-694915,CaLaMnSnO6,0.7267000000000001
mp-12159,Na2PO3F,4.4907
mp-6340,LiAl(SiO3)2,5.368399999999999
mp-27840,Cr3Se4,0.0029000000000003467
mp-17036,Tb2Si3Rh,0.0
mp-770055,Li2MnV(PO4)3,0.8939000000000001
mp-1025517,Ti2InN,0.0
mp-850103,Li4V5(FeO6)2,1.3976000000000002
mp-10334,Pr(CdP)3,0.5112999999999999
mp-583454,Nb2Bi2PbO9,2.2962
mp-569396,BaLi2(MgGe)2,0.0
mp-28563,CsAsSe2,1.4159
mp-765422,Li9V3P8O29,0.8960000000000001
mp-567322,KSm2Sb3Se8,0.5093999999999999
mp-2659,LiN3,3.6364
mp-765326,MnH8(NF3)2,3.1861
mp-1097468,CaScIn2,0.0
mp-865659,Y2ZnIr,0.0
mp-1074093,Mg9Si5,0.0
mp-556621,RbBiAs6H24C8(S6N)2,1.8746
mvc-10127,CuTeO4,0.0
mp-762527,LiFe4(PO4)3,2.9845
mvc-4004,AlWO3,0.8598999999999997
mvc-9965,CaMn2(PO4)2,3.2601
mp-917343,Ga2NiS4,0.0
mp-2841,ScSi2,0.0
mp-765363,Li2VF4,1.3747
mp-764695,Li2VOF4,1.5987
mp-540321,FeP2O7,0.013799999999999979
mp-1005754,SmHSO5,5.5679
mp-1036983,Mg30NbCoO32,0.3113000000000001
mp-764054,Mn3O5F,0.0
mp-31929,MnHO2,0.7488999999999999
mp-777623,Na4Mn2C4SO16,0.2327
mp-771680,Mn5Co3O16,0.9118000000000002
mp-779223,Li10Mn3Co2Ni3O16,0.06680000000000019
mp-1023953,MoSeS,0.6783
mp-707485,K4Cu3As4(HO8)2,0.5323
mp-777062,Li4Fe3Co3(CuO8)2,0.0
mp-6167,Ba2NdNbO6,2.9850000000000003
mp-865804,TaZnRh2,0.0
mp-1038797,MgCd2,0.0
mp-622196,KHgC3(SN)3,1.9119
mp-555122,Rb2Pd(NO3)4,1.8948
mp-1070375,CsSnCl3,0.9787
mp-21377,Sm,0.0123000000000002
mp-764156,Mn3(O2F)2,0.0
mp-865375,Tm2OsRh,0.0
mp-772777,K3SrPCO7,4.153499999999998
mp-540626,NiH8(IO5)2,3.7606
mp-505162,LuCu(WO4)2,1.1959999999999995
mp-743818,Sr5Nd5Cu(NiO5)4,0.0
mp-17562,Sr3Sc(BO3)3,4.6355
mp-574029,KC4N3,3.7393
mp-774006,Li4Mn3SbO8,0.0
mp-566311,Na2MnP2O7,3.9203
mp-1095770,SrBiAu2,0.0
mp-772374,Mn5Fe(PO4)6,0.0
mp-36866,Al2CdO4,2.9967000000000006
mp-1028385,LaMg14Al,0.0
mp-773302,Li3Ti2CrO6,0.0
mp-851068,CoPO4,1.1979
mp-775285,Li2CoNi3O8,0.07960000000000013
mp-29466,CeSi3N5,0.14840000000000053
mp-9592,Yb(MnAs)2,0.0
mp-754668,Hf3N2O3,3.2509
mp-1020142,Na2B4O7,5.4224
mp-773090,Nb6CdO16,1.5731
mp-27238,SbXeF9,2.1416
mp-776527,Li2MnPHO5,3.1918999999999995
mvc-10361,BaMgSnF7,0.0
mp-31287,Tl3PdBr5,1.3458
mp-1039028,CaMg5,0.0
mp-6586,K2NaAlF6,6.8580000000000005
mp-1094940,Ce5Mg,0.0
mp-1032615,Mg6ZnFeO8,1.3261000000000005
mp-27375,Tl4HgI6,1.1909
mp-722866,SbH6CN3F4,4.5806
mp-775925,Li8Sb7S19,0.0
mp-760778,Li2AgF5,0.4086000000000001
mp-1095575,Y3(CuSn)4,0.0
mp-862769,RbGe3,0.0
mp-560334,NaAlSiO4,4.5993
mp-1096538,Al2NiPt,0.0
mp-561070,FeBiO3,1.6657
mp-1072382,YZn2,0.0
mp-1018717,HfSb2,0.0
mp-975361,RbErO3,0.0
mvc-3110,Zn(WO2)4,0.10329999999999996
mp-770904,Li3Mn(BO3)2,1.4244
mp-1026617,RbHfMg14,0.0
mp-1031240,KMg6BO7,1.6617999999999995
mp-1096934,CrN2,0.010599999999999945
mp-1095495,YZn2,0.0
mp-768313,Dy2TeO6,3.0066
mp-850516,Ca2SiB5H5O14,5.5834
mp-1075984,La7SmMn3Fe5O24,0.0
mp-10059,ZrCo3B2,0.0
mp-770049,Li5Fe2P2(CO7)2,1.4239
mp-556046,SrGa2B2O7,3.9685
mp-763938,CoOF,0.0
mp-542627,Fe2AgS3,0.0
mp-757872,Li2Ag3F6,0.1978
mp-625604,H9BrO4,3.7298
mp-1080526,Zr6Ga2Fe,0.0
mp-32525,Li2V(PO4)2,2.6353
mp-1017241,Mg6GaB,0.0
mp-673801,Ca3NdF9,6.1386
mp-1095829,NaMg2Tl,0.011999999999999568
mp-997528,TiV3Fe2(PO4)6,0.0
mp-1094707,Ca3Mg4Zn11,0.0
mp-1022465,LaMg6Zr,0.0
mp-1034717,Mg14CdNiO16,2.8964
mp-22896,LaCl3,3.6454
mp-680683,CsB9O14,5.4514
mp-559539,Li2U3P2O15,2.2683
mp-18726,CrNiO4,2.0499
mp-11085,YbCdAu,0.028799999999999937
mp-696485,Na2TeHSO5F3,3.4407
mp-1099182,YMg14BiO16,0.0
mp-705775,La5Mn5O16,0.010000000000000677
mp-11245,HoAu,0.2657999999999996
mp-18240,Tl2Cu2SnS4,0.22229999999999966
mp-559020,KBi(PO3)4,4.8932
mp-1096004,Hf2NbIn,0.0
mp-27579,Na4P2O7,4.416
mp-653987,GdCu(MoO4)2,1.6261
mp-8456,SrAsPt,0.0
mp-18780,K2WO4,4.384399999999999
mp-621924,BaCdGaF7,4.4668
mp-675084,Ca4Al3O10,0.0
mvc-3397,Sr2AlGaCo2O7,0.7689999999999997
mp-31337,InPd3,0.0
mp-768028,Li3Mn2SnO6,0.0
mp-1028363,CeMg14Sn,0.0
mp-566245,BaMn2O8,1.9074
mp-674708,Rb4N4O3,0.0
mp-765108,Li2V(CO3)2,2.4831000000000003
mp-767966,Na5Fe2P2(CO7)2,1.0246999999999995
mp-556708,KUP3O11,2.2711
mp-13926,Rb2NaYF6,6.4704
mp-763371,LiFe2(CO3)4,0.07040000000000002
mp-25074,CsMoPO6,2.8607
mp-769176,K5YO4,2.1115
mp-540795,Ba3SrTa2O9,3.9261
mp-705547,Fe2O3,0.9095
mvc-11654,Mn4ZnO8,0.0
mp-1040093,LiHfMg30O31,0.02280000000000016
mp-32500,Mg2V2O7,2.7138
mvc-10077,MgTa2(CuO4)2,0.3933000000000002
mp-29708,Hf(Te4Cl3)2,0.9085
mp-1026791,CeMg14Si,0.0
mp-37605,LiNdSe2,1.523
mp-768086,Na3Mn2P2(CO7)2,0.0
mp-560831,Na6P4Pb3S16,2.3264
mp-5918,Hf2NiP,0.0
mvc-15905,AlMoO3,1.7374999999999992
mp-684911,Sm2Te3,0.9168000000000004
mp-908025,Fe,0.0
mp-1078808,TlSe,0.19799999999999995
mp-29222,Ba2Si3O8,4.5119
mp-761757,Li8V3P8O29,0.8566000000000003
mp-622472,NaZr2NiF11,5.6479
mp-627406,NaVF4,2.0681
mp-18837,KSc(MoO4)2,3.6132
mp-768524,Ge2As2O7,3.2054
mp-1079297,Si,0.3890000000000001
mp-4782,CaSnF6,5.4068000000000005
mp-765032,Li6V3P8O29,1.3947
mp-761778,Li2V2Si5O13,2.3586
mp-758235,Na2TeH5SO10,0.1906
mp-570891,KBr,3.8776
mp-622496,NaMnCr(CN)6,0.0
mp-625420,AlHO2,4.8339
mp-569637,La4C2Cl5,0.0
mp-898,HoAl3,0.0
mvc-6375,WO2,1.3962000000000003
mvc-8324,ZnCo4(CuO4)3,0.0
mp-773579,Li6V3P8O29,1.0198999999999998
mp-557832,K2Cd(AuS)4,2.031
mp-850475,Li3Mn2(P2O7)2,0.0
mp-558268,Ca4Si6Pb6Cl2O21,3.3861
mp-1068653,CaSi3Ir,0.0
mp-553962,Rb2LiNbS4,2.306
mp-557364,CdB2F8,5.4624
mp-28171,K3IO,1.3748
mp-1028198,YMg14Al,0.0
mp-11267,BaHg2,0.0
mp-1098847,Mg30CdCuO32,0.20509999999999984
mp-1868,VS,0.0
mp-768036,Mn(CO3)2,1.1769
mp-24903,Na3CrP8O23,3.4952
mp-13993,Ti3NiS6,0.0
mp-13725,Li3PO4,5.818099999999999
mp-1079391,Sr2LaCrO6,0.0
mp-28657,Na2MgCl4,4.9057
mp-762657,LiFe(PO3)3,3.7531
mp-568931,YbNiSb,0.0
mp-762111,Li2CuPO4,2.0687
mp-565833,K3VH2(CO5)2,2.2312
mp-545999,AgSbO3,0.10780000000000013
mp-5400,Th(CrSi)2,0.0
mp-39226,SrLa4TiAl4O15,2.1
mvc-13511,Ti2Al2O7,0.5983
mp-9357,Th(CrB3)2,0.0
mp-27379,TeAsF5,2.1906
mp-510402,GdS,0.01670000000000016
mp-28177,NaSbCl6,2.0358
mvc-146,Ba2Mn4Tl2Zn3O12,0.0
mp-768345,Ba2B2O5,3.8444
mp-696695,BaCaCO3,0.0
mp-1039192,MgAl2,0.0
mp-722315,ZnH3CNO3,3.519
mp-865552,CeCdAg2,0.0
mp-25053,Sr2NiMoO6,2.3065999999999995
mp-1093647,MgZnNi2,0.0
mp-11366,ZrZnCu2,0.0
mp-771412,Li2CoBO4,1.0322
mp-976113,LaAu3,0.0
mp-1028976,Te4MoW3S4,0.0
mp-1021776,Mg6VMo,0.0
mp-675257,Mn(NbS2)4,0.0
mp-1094295,SrMg5,0.0
mp-867350,Ca2MgIn,0.0
mp-1030827,Te2Mo3W(Se2S)2,0.0
mp-1099865,La7SmMn8O20,0.03639999999999954
mp-766651,LiNiPO4,3.2155
mp-778638,Fe3(OF2)2,0.9068000000000004
mvc-11134,MgTi2O5,3.1168
mvc-11275,V4ZnS8,0.0
mp-675926,LiBH4,5.6481
mp-769021,Na2CuO2,0.1593
mp-772441,Y2W2O9,2.3369000000000004
mp-769885,Sc2V2O7,1.2135000000000002
mp-764000,Li3CoOF3,2.1575999999999995
mp-1026571,SrMg14Nb,0.0
mp-662513,Te2WCl6,0.0
mp-555495,K3Y(BO3)2,3.1813
mp-977588,LuNiSn,0.0
mp-625964,Ba(H2O3)2,0.12349999999999994
mp-1097405,Sc2CdGa,0.0
mvc-11988,Fe(SiO3)2,0.0
mp-34541,Li31Zr2P13,0.002299999999999969
mp-1078573,GeH4,0.0
mvc-12414,Ti2ZnO4,0.0
mp-770173,Mg2Mn3O8,0.7802000000000002
mp-546082,TmBi2ClO4,1.4059
mp-27227,LiAg3O2,0.7277999999999998
mp-769069,Na2Li4Ti3Al(PO4)6,0.0
mp-771373,Li6FeCo3(PO4)6,0.8029000000000002
mp-697068,SiPd2,0.0
mp-1027080,Te4Mo3W(SeS)2,0.0032999999999998586
mp-7479,RbYbO2,0.0
mp-640553,BaNb2O6,1.7859
mp-30722,ScHg3,0.0
mp-770597,Cd(NiO2)2,0.125
mp-570990,Cs2MoCl6,0.0
mp-568386,Ag10Te4Br3,0.774
mvc-7210,BaTiAlCuO5,0.008899999999999686
mp-1025497,AlV2C,0.0
mp-30079,LiMg2Ge,0.0
mp-763617,V4(AgO4)3,0.0
mp-865652,TiMn2Si,0.0
mp-1027033,Te3MoWS,0.0
mp-36526,AcOF,4.2566000000000015
mp-779262,LiFePCO7,0.0
mp-771537,Li7Cr3(WO8)2,1.4382
mp-36223,Ba(PrS2)2,1.9354
mvc-14848,CaCu2(P2O7)2,0.5299
mp-629511,Ce2SbS5Br,0.0
mp-767055,LiNiP2O7,0.07269999999999999
mp-1070665,NClO3,0.6521000000000003
mp-973450,Hg3C,0.0
mp-765892,MnCoO4,1.2703000000000002
mp-649632,KCo(CO)4,3.7261
mp-565752,KGd(WO4)2,3.1438000000000006
mp-1026799,LiMg14Cd,0.0
mp-767264,Li2Ni5O7,0.0
mp-705676,K4MoO8,0.5692999999999999
mp-5244,Ti2SbP,0.0
mp-540450,LiV(PO4)2,1.2990999999999997
mp-569378,Rb3Ta2AgSe12,1.425
mvc-14977,Ca3Fe2(SiO4)3,2.6134000000000004
mp-1058019,BrN,0.0
mp-1477,BaSi2,0.7812999999999999
mp-35040,LiMg9B20,0.0
mp-3726,Li2GaPt,0.0
mp-778288,SrLi4NiO4,2.6467
mp-776663,Li4Ti2V3Fe3O16,0.8033000000000001
mp-25682,U2Co3O8,0.3506
mp-28866,Te2OsCl12,0.0
mp-773911,Ti2Sn(PO4)3,0.0
mp-1030327,Te6Mo3WSe2,0.2524999999999995
mp-11684,SiO2,5.8114
mp-1094216,LaMg,0.0
mp-766422,Li3BiS4,1.6645
mp-13755,BaNa(PO3)3,5.3055
mp-25656,Li3PWCO7,2.1989
mp-853156,V4(OF3)3,0.7861
mp-1023945,Te2MoWSe2,0.30499999999999994
mp-1036556,Mg14AlCuO16,0.7314999999999996
mp-19692,Mn3V2O8,1.9247
mp-772332,Nb3Co(PO4)6,2.1091
mp-12763,TbB6,0.0
mp-558543,Ca(CO2)2,3.1204
mp-1093548,Sc2TlZn,0.0
mp-17978,Rb5GeP3,0.4614
mp-13979,Ca2Nb2O7,3.1000999999999994
mvc-6475,MgTi2O4,0.0
mp-764978,LiCo(CO3)2,0.3558
mp-607738,CeZnRh,0.0
mp-771461,MnV4CuO12,0.0
mp-9989,Nb2AsC,0.0
mp-755216,TmBiO3,2.4418
mp-696012,Mo(PO3)5,0.04040000000000005
mp-30964,Dy2Zn17,0.0
mvc-9926,LaZnCrCuO6,0.0
mp-24084,KH,3.4387
mp-11563,TiRh,0.030799999999999283
mp-983234,Sm2Ge5Ir3,0.0
mvc-15137,Ba2ZnFe2F14,0.16759999999999994
mp-863908,Sc7V9O24,1.6829
mp-777239,Mn3(O2F)2,0.10400000000000008
mp-15603,HoB2C,0.0
mp-552934,Ba2CuBrO2,2.3073
mp-30521,ThCN,1.5492999999999997
mp-1071839,UCu4Au,0.0
mp-505679,HfV2O7,2.7434000000000003
mp-23181,SrI2,3.8415
mp-30657,TiGaNi2,0.0
mvc-15572,Mg2VN2,0.0
mp-570771,BaLi2(MgSi)2,0.0
mvc-10495,Cr4O9,0.1837
mp-15740,SrZn2(AsO4)2,2.8662
mp-542058,Tl3B3Se10,1.3101000000000005
mp-504968,RbFeCl4,1.3548
mp-1097598,ZnGaCu2,0.0
mp-1017498,CeMg6Bi,0.0
mp-774280,Li2Fe3CuO8,0.0
mp-685013,TiS2,0.0
mp-1095996,HfTc2Ge,0.0
mp-1025421,SmO3,0.17679999999999996
mp-494,GeMo3,0.029700000000000063
mvc-6973,CuW2O7,0.3526000000000001
mp-9122,CaP3,0.024099999999999788
mp-643776,Na2ZnH4(SeO5)2,3.0254
mp-28076,K3Mn2Cl7,1.4235
mp-768889,YHoO3,3.0775
mp-1024975,CeB2Pt2C,0.0
mp-1096665,BeFe2W,0.0
mp-853209,Li3Mn4(BO3)4,0.0
mp-758828,LiCuPO4,0.2124999999999999
mp-614768,Cs3NiF7,0.7702
mvc-7792,Mg(MoO2)2,1.3003
mp-1037563,Mg30VZnO32,2.1899999999999995
mp-743986,CsVH12(C2O7)2,2.5660000000000003
mp-1080850,RbReN2,0.0
mp-7101,Ce(AlGe)2,0.0
mvc-6513,Mg(AgO2)2,0.0
mp-32424,Li2V(PO4)2,1.3071
mvc-2362,Ta2Zn2SnO8,2.465
mp-25582,MgMoH2O5,4.0949
mp-631508,LaReB,0.0
mp-31632,CrP2O7,0.0
mp-21316,TaSiIr,0.0
mp-780454,SrCa2I6,3.7009
mp-28567,LiBiF4,4.8859
mp-10442,Eu(Cu2As)2,0.0
mp-762696,LiFeSiO4,1.7914
mp-2400,NaS,1.2348
mp-1026485,Mg14CdB,0.0
mp-30233,Na3As7,1.4262
mp-752529,Li5CrS4,0.9084999999999996
mp-720212,Rb9Na2Al11Si13O48,2.4145
mp-684680,Yb2S3,1.4034999999999995
mp-772799,K2SnPCO7,0.0
mp-33325,Mg(FeO2)2,1.6993
mp-1023301,CaMg6Ti,0.0
mp-1097135,Ca2TlIn,0.0
mp-866289,Ac2ZnSi,0.0
mvc-2699,ZnCrO2,0.09539999999999972
mp-778704,LiFe2F5,3.0917
mp-648414,V2PS10,1.1097
mp-7262,ZnAs2,0.22489999999999988
mp-10955,Sn(HgSe2)2,0.2722
mp-974769,EuNiGe3,0.0
mp-19341,Tl2WO4,3.319