Compound,Melting temp. (K)
AlAs,2013.15
As,1090.15
BaBr2,1130.15
BaS,2500.15
Be,1560.15
BeCl2,688.15
Bi2S3,1050.15
CaBr2,1015.15
CaI2,1056.15
CsCl,919.15
Ge,1211.4
GeSe,948.15
I2,386.85
K2O,1013.15
KO2,808.15
Mg2Si,1375.15
MgH2,600.15
MgS,2499.15
NaCl,1073.85
PbCl2,774.15
PbF2,1103.15
PbO,1160.15
SnBr4,302.25
SrH2,1323.15
SrSe,1873.15