mpid,formula,shear modulus
mp-16263,CaZnGe,38.72883206833377
mp-8780,Cr2N,139.97680090350266
mp-23804,Mg2FeH6,60.887106677039355
mp-1016853,CaVO3,74.0
mp-972808,SiO2,19.0
mp-11411,ScGa,42.1850861346328
mp-867327,Hf2TcRu,91.04551115282564
mp-19328,NaWO3,77.30606540618994
mp-4158,Nd2CuO4,58.0
mp-672232,AlNi3,16.23046756066921
mp-862555,LiY2Al,32.84696597595388
mp-866154,TiBeIr2,121.16872548930584
mp-32662,WO3,72.67321326105184
mp-27639,IBr,1.0978673786521411
mp-1008555,AlCu3,0.3095227298527732
mp-760401,Nb3O7F,71.4385589609953
mp-5072,Rb2HgO2,11.468264551372252
mp-570001,Al6Fe,56.0
mp-685991,Li5SiP3,26.971932900514712
mp-561258,ZnS,33.75918225826361
mp-4488,Sr(FeAs)2,42.079124199815936
mp-9437,NbFeSb,81.28844695167663
mp-20787,FeB,140.87812687738162
mp-866152,TiBeCo2,101.63586177477112
mp-32880,CuBr,13.771214328443026
mp-621348,TiInAu2,16.71201296864809
mp-23240,CoCl2,4.6187134502688565
mp-763136,FeOF,55.751215800184404
mp-640041,NbZn16,32.524836732400686
mp-5288,Y(FeSi)2,79.6507371706166
mp-30245,Mg3H4O5,31.944295581133318
mp-556961,SiO2,41.36805823208479
mp-755690,NbO2,89.0
mp-505782,Cs2SO4,9.83274189155398
mp-5166,Ca(AsPd)2,26.523120799707783
mp-9262,Cs2PtF6,6.0
mp-769726,Li3(FeO2)4,43.331413785022754
mp-865506,VSiOs2,125.92734515042848
mp-782688,Li2FeF4,0.10989873593344512
mp-15922,Gd2ReO5,58.479192492365655
mp-971683,C3N4,52.69581472171589
mp-1029336,KZnN,9.10323350478561
mp-23558,Ag2BiO3,20.92527496051249
mp-21003,Y2ReC2,74.11672334467178
mp-865321,Lu2IrRu,61.0
mp-19138,BaNiO3,24.0
mp-3803,Ta4AlC3,145.80069165447216
mp-937760,C,92.60909524902044
mp-976838,Ni3Au,46.06850332083772
mp-11750,Ti6Si2B,103.57499955038513
mp-7352,MgCuP,48.11276202102695
mp-559435,CoF3,47.396013068388996
mp-15805,Mn3ZnN,112.63841964947014
mp-864598,LiMg2Ag,27.205771774404894
mp-600862,GdFeO3,71.36276682470506
mp-569886,KIn9Ni2,19.110957785529088
mp-507,SiNi2,58.1788127085816
mp-10891,MnAlPd2,34.0
mp-27897,Ba(NO2)2,12.318090563242555
mp-891,TaNi3,82.0
mp-1013703,Ca3BiAs,12.0
mp-1018022,NbInS2,26.48982028984103
mp-760411,Bi2CO5,35.80142466447243
mp-193,Zr2Cu,47.22782021466364
mp-1021672,Sr2CuC(NO)2,20.449156566943273
mp-7639,Na2CuP,20.415502586257514
mp-561428,NiF3,39.981758875152785
mp-864617,NdI3,1.5323346343553697
mp-30882,TiZn2,63.0
mp-999083,Ti2MnSn,159.9942546259677
mp-1017629,MgNiH3,40.0
mp-27932,Li9Ge4,27.370159385084108
mp-30656,TiGaNi,69.0
mp-865123,MgGaPd2,33.93877732058751
mp-909,As2Se3,4.46732860352357
mp-972845,SiMo,102.69683177631727
mp-1019584,CaAl2SiO6,69.97314512486933
mp-1006880,BiB,59.34509222084361
mp-862378,Sc2TcAu,48.31943375303218
mp-864939,Hf2CuIr,44.874226018252436
mp-510624,SrFeO3,83.39260168761764
mp-631404,CrIrRu,5.0
mp-22712,YPd2Pb,25.36483273505795
mp-2643,Ti3Cu4,61.0
mp-718,SnPd3,51.50400613820548
mp-12268,BaCuF4,19.4964570416028
mp-30139,BeBr2,2.40124448449306
mp-4691,Ag2CO3,13.409275751438509
mp-30175,Ca(AlZn)2,36.13139123710887
mp-754988,KVO2,227.01944797620533
mp-31596,CoReO4,76.85378706849778
mp-13138,Cu3Sn,37.32736328221709
mp-569383,Ca5(CoN2)2,33.9324315002556
mp-569857,K2P3,8.91936574769006
mp-865357,Zn3Pd,23.984988549285273
mp-1989,Ta5Si3,133.01188769629428
mp-8676,Tl(CuS)2,16.0
mp-867196,LiCd2Pd,16.269615523827408
mp-24961,LuFeO3,85.1243183845837
mp-1529,LuIr,64.0
mp-865780,TiMn2Ga,78.83230096165548
mp-865921,MgAlIr2,107.27803054085959
mp-638,SrZn5,30.41022512367348
mp-540912,As3Ir,83.59470038534903
mp-22717,CaIn2Pd,25.154280883332
mp-998,Al2Cu,40.212680848268754
mp-22914,CuCl,10.450514285753648
mp-574025,HfInAu2,24.69875199920532
mp-22716,LiCu2P,31.57823260023955
mp-21164,SrGePt,18.86780815921918
mp-20937,Cr3C2,168.55071388883368
mp-20315,Ti2InC,96.13566121133286
mp-11957,CaSn2Ir,37.803044790856816
mp-13312,ScTlS2,27.04574220417955
mp-864976,Mg2AgIr,29.25831813084388
mp-12884,Hf5Te4,35.742902856671115
mp-1170,SnS2,10.343092068258024
mp-4768,Eu(SiNi)2,55.0
mp-5618,Mg2As2O7,48.22865921814946
mp-31498,BaPt,19.013419150503456
mp-754752,NbNO,61.04577186366622
mp-4895,UTeAs,39.0
mp-568940,Y(NiP)2,85.0
mp-1356,Sb2Pd,28.171678205034155
mp-764819,VOF2,46.0
mp-11818,BaZnGe,29.0
mp-8062,SiC,186.9297867795349
mp-999052,Ti2MnAl,54.0
mp-542136,Na3PSO3,21.094386399146586
mp-21289,TiZn3,24.071869539174603
mp-868117,NaCoO2,48.561673994678365
mp-583,CoAs,80.49089174674575
mp-9564,Ca(MgAs)2,36.0
mp-4531,NaNO3,13.395530639851588
mp-10445,Sc6FeTe2,32.28117690000055
mp-20329,InAgO2,31.0
mp-29209,Ba(MgBi)2,20.453642044811872
mp-19728,YSiRh,61.62565616909852
mp-232,DyRh,41.0
mp-14208,LiYSi,47.658854870426474
mp-7991,BN,108.46967734359629
mp-1006226,ZnBi,16.383365558892955
mp-1585,V3Co,109.84717349900879
mp-1018783,LiBeB,60.00460969317086
mp-3676,MgCu4Sn,55.041881154326774
mp-770997,Li2HfO3,51.45497323512388
mp-2930,Mn3ZnC,71.10873977520903
mp-867901,ScTaTc2,73.19658643776404
mp-864794,ZnAg3,19.59407334103391
mp-1018087,CeAu,18.164404742459144
mp-555576,KNaS2O7,11.0
mp-32829,CuCl4,2.280525272402256
mp-13,Fe,73.60797629829217
mp-972954,MgCd2,16.672706869811215
mp-7939,NaNbSe2,38.0
mp-754475,Tm2SeO2,27.0
mp-7583,SiS2,19.23976298848213
mp-9571,Ca(ZnAs)2,35.779408803358116
mp-4252,SnPS3,11.389845589847331
mp-22003,NaN3,6.999241797444142
mp-989579,Rb2LiTlCl6,10.163987406621796
mp-28017,Na8Ti5O14,42.0
mp-567771,Ba(Si3N4)2,103.64479384227793
mp-2562,MnS,16.09711630630723
mp-12762,PrB6,115.0
mp-862369,Sc2IrRu,69.41172082495427
mp-571499,TaIr,96.2328367397883
mp-862983,InCl3,2.9909224976928748
mp-22867,RbBr,6.46256613257619
mp-505517,BaNb4O6,109.384616726565
mp-22883,PbI2,2.2465513620438577
mp-504935,K2PbO3,18.709893436239067
mp-8677,ZrTiTe4,12.0
mp-756018,BaMgO2,39.935376843805855
mp-763,MgB2,117.65727437433094
mp-16220,Si,36.71355801191928
mp-16483,BaAl9Fe2,45.035537359104644
mp-9350,ScGeAu,44.062126298061635
mp-864895,Be2NiRh,107.0
mp-8285,ZnGeO3,48.31088137571024
mp-25559,MnVO4,47.68772028696861
mp-861867,AcI3,1.101942397926485
mp-756134,ZrSeO,74.72023635994697
mp-10670,Ca3(AlGe)2,33.52710736474805
mp-27577,Cd2As3I,18.40846572362704
mp-1025575,Mo(WSe3)2,11.912313285502453
mp-770618,MgMnO3,87.47629989271971
mp-11482,MoIr3,188.0
mp-761415,CuNi3O4,77.49552948351045
mp-7080,Li5(NiN)3,46.577523110946636
mp-769930,CoBiO4,52.18489939727546
mp-13079,Mn2AlCo,103.960345818017
mp-999498,N2,241.28179635624957
mp-690536,Sr4Fe4O11,70.76357820235691
mp-1400,HfW2,94.04851186336442
mp-31031,La4PdO7,50.4048678874766
mp-754711,Nb2Pb2O7,77.2133765514055
mp-862257,Sc2ZnAu,42.22155199177523
mp-3955,AlPO4,34.0
mp-13946,Rb2ZrF6,9.998248376540557
mp-510421,CrO3,5.306706203009373
mp-24854,CoCO3,55.58626607315461
mp-11455,HfPt,31.36308932566716
mp-972220,TiPt3,92.0
mp-546500,NaCNO,7.890051714290079
mp-976055,Li3In,5.0
mp-985584,Na3PS4,5.371484755654636
mp-8308,Ca3Ni7B2,53.711202443860216
mp-541989,Na2CN2,17.636256734450818
mp-31059,Ba(AlGe)2,12.785833882215655
mp-977463,MgMnRh2,59.457651091942104
mp-8635,Zr,30.434782470544487
mp-22152,NaFeAs,32.44003231519557
mp-9179,Ba3Zr2S7,30.29340632950941
mp-1102,LuN,145.2690670791278
mp-999120,TcB,199.0
mp-10470,NbSiRh,112.30669350351006
mp-861946,Er2MgAl,36.0
mp-13174,PtN,4.0
mp-1008901,MgH2,12.946815685303402
mp-976025,Li3Ga,30.0
mp-864990,Mn2AlW,127.49847108299444
mp-30797,Nb5Te4,43.471429132971394
mp-864878,ZrAlAu2,14.586117732975767
mp-604910,MnSe,13.0
mp-9920,TiS3,11.471527620206691
mp-3363,Sc2Ni2Sn,35.25755129417581
mp-2716,TiNi,37.74130648122993
mp-1919,ZrCr2,52.82250981386546
mp-417,MnRh,81.17955279741602
mp-5158,KNO3,7.6144667629237475
mp-977013,H6PbCI3N,4.938531761332978
mp-4262,BeAlB,130.8458121836495
mp-1029726,Li6IrN4,59.0
mp-570689,CaInPt,26.50218519076753
mp-862362,Sc2TcPt,61.250129966249844
mp-4590,Mg(GaO2)2,75.3778413110997
mp-570197,Bi2Pd,13.619896339330769
mp-22258,HfSiMo,103.86151769249996
mp-20458,PtPbF6,10.320597840552454
mp-27934,CdBr2,3.6616879105464646
mp-865730,TiZnAu2,26.15015777835015
mp-567354,TiCl3,3.463911003509884
mp-11563,TiRh,300.0
mp-1029258,Ca(ZnN)2,80.17124877327002
mp-30395,ScInAu2,23.282572194112266
mp-570452,Y(SiAu)2,45.42544605888346
mp-1024984,TbInPt4,57.0
mp-505562,CrCuO2,57.57045414788044
mp-764467,Na2FeO3,36.26515849827625
mp-1253,BaSe,21.0
mp-24726,TiH2,31.367722325881488
mp-345,HfB,82.0740496582953
mp-20521,ScInPt2,5.778987439273387
mp-7921,MgPdF6,27.410223861667234
mp-788,CoTe,50.77581633732275
mp-866056,AcN,18.42864963327737
mvc-11813,CaLaMn2O6,64.0
mp-11541,ZrOs,98.82564131904421
mp-2661,SrSi,33.0
mp-6980,ScCuS2,37.74587272334672
mp-775113,NaMnO2,51.0
mp-10069,Ce(P3Ru)4,109.69322955648545
mp-978256,Mg2TlPb,33.0
mp-866037,GaNiRh2,56.69710286463477
mp-567657,K(CuSe)2,13.402089830029249
mp-867895,Sm2CuRu,32.0
mp-8191,Cs2PtF6,8.901126109360918
mp-7632,NiMoP,95.0
mp-34467,Zn(GaS2)2,28.96422059642159
mp-8487,CaSbPt,35.01855252615248
mp-2493,CeN,76.22221329128297
mp-3207,Sr(NiGe)2,35.65354054801679
mp-669917,ZrRh,47.84407543795386
mp-214,ZrRu,80.95719483228271
mp-2612,GeTe,40.373766486825545
mp-11228,YAl,34.83152002158773
mp-865125,MgGaRh2,78.35464064450672
mp-2515,CrPt3,97.2734714312892
mp-569066,Cs2PdI6,3.2608494713855025
mp-764233,Na8CoO6,25.28382955131281
mp-1029782,Ca3W3N5,49.086068028653536
mp-864897,Zr2CuOs,45.96267866532952
mp-1201,Sb2Te3,13.0
mp-496,SrSi2,30.66184441499573
mp-7818,Pd4Se,37.06842764691291
mp-10550,SrMg2N2,70.1900537269179
mp-636331,V3Pt,48.0
mp-1865,UN,79.0
mp-977011,H3PbCI3NF3,5.1047365073115865
mp-865051,NaCa2Tl,15.0
mp-865558,AcTe3,20.567849846393674
mp-13156,HfAg,50.266596243628165
mp-5063,YAl3Ni2,68.09838558597593
mp-636334,SnRh2,55.16053425069442
mp-2574,ZrO2,48.03359935171298
mp-12906,Sr3CrN3,28.612697889689425
mp-18966,FeAgO2,41.537822437438344
mp-1009538,PdC,19.0
mp-3862,Ca(AlGe)2,38.938319804634425
mp-8642,Re,186.38164969056183
mp-30953,GaBr3,1.1236632551087482
mp-10748,TaCu3S4,24.511041830265608
mp-581833,RbN3,7.107455067579157
mp-504543,SnPbO3,49.471284519441284
mp-505042,Cu(BiO2)2,26.542659143299407
mp-29379,K3BiTe3,4.955448409233432
mp-389,SiPd,58.19394954785275
mp-11227,Al12W,56.73757362176009
mp-34579,Na3HfF7,16.453929630643962
mp-22903,RbI,4.62642129893157
mp-22787,Fe2Si,119.02579053524315
mp-810,NiSb,49.541871183364925
mp-10446,Sc6NiTe2,30.074486726777693
mp-1307,LiGa,29.0
mp-540839,CsPbI3,5.0
mp-9061,KPdF3,21.0
mp-19821,Cr2GeC,82.0
mp-865877,Ti2RePt,78.10648123181097
mp-473,Na3P11,6.223649924777348
mp-1894,WC,278.9601040567486
mp-754157,AlInO3,88.19922839300457
mp-690093,Ca2Fe2O5,38.855654143489254
mp-16548,ZrTiF6,30.58043069382723
mp-570377,Sn3As4,21.158417386847066
mp-980044,YbPrCd2,21.0
mp-19079,CoO,38.082356763249976
mp-22179,YTiSi,49.22701738550748
mp-752826,Al2O3,74.4347943828668
mp-867874,BeVRu2,86.38580591049156
mp-1024955,PrNiSb,35.0
mp-5910,CaCuSb,34.29453594115137
mp-1822,TiAs,72.0
mp-4820,ZrSiO4,95.7274533874222
mp-20049,LiFeP,51.41966278880982
mp-631495,BaYSc,16.0
mp-4276,NaSi2Pd3,44.98203067682714
mp-13548,Cs2Pt,4.55950304851784
mp-14091,AlAgSe2,17.933113044110556
mp-865548,TiInCo2,68.1423426167988
mp-864807,HfZnNi2,49.0
mp-570428,Sc3In,37.606253474868936
mp-862264,Sc2ZnTc,38.018155621721796
mp-648,Na2S,17.712006235856148
mp-623134,ZrInCu2,51.0
mp-568895,BaSbAu,26.0
mp-5748,HfAlNi2,48.86036229174997
mp-16613,AlAuO2,72.2488642124675
mp-306,B2O3,35.79085334920305
mp-25118,VClO,15.0
mp-2361,Hf5Al3,47.65628554865853
mp-984718,BAs,126.18786155281951
mp-12561,TaAs2,96.46963006329977
mp-786,MnSb,40.01740653728304
mp-38683,Co2NiO4,61.433279522018786
mp-156,La,15.0
mp-18972,Sr2VO4,72.32501550876057
mp-11263,Zr3Au,52.0
mp-862446,TaAlRu2,131.26287863432492
mp-22856,Bi2S3,3.2148985593766986
mp-7565,SbRu,51.3461620951754
mp-30883,V4Zn5,56.0
mp-569708,TiPt3,107.02405521646568
mp-28066,ThBrN,18.436066509933198
mp-754128,Ba3Hf2O7,71.0
mp-20395,VAsRh,76.13371108505295
mp-867330,Al2FeNi,94.70798504469278
mp-1849,Mn2P,98.56662958823996
mp-20868,Fe2W,136.69415285825437
mp-997054,CuBiO2,19.56436668269098
mp-1598,Na3P,14.150618217177938
mp-22752,FeSn2,55.65178937435237
mp-20492,ScSiRh,73.91340382165565
mp-10909,AlRe2,139.0885868011424
mp-1180,MnPt3,91.6046738478472
mp-569416,C,43.77899058879898
mp-24084,KH,10.809981130826404
mp-11869,HfSnPd,58.0
mp-18803,Na2WO4,28.0
mp-8041,Rb2S,7.0
mp-11230,Y2Al,29.65585959090483
mp-864920,MgZrAu2,32.25901239714926
mp-13512,CaNiGe2,35.56916140373818
mp-6919,ScSnAu,37.29391542001413
mp-997055,CuBiO2,20.882441577248105
mp-754954,Ag2Se,11.526565082466453
mp-975043,Rb3Ca,3.0
mp-989399,Ca6Al2NF,19.440023802704424
mp-763430,Li3MnF6,15.736942425692305
mp-11279,TiBe,74.59876140545933
mp-569628,CaCdAu,19.29139798186488
mp-2578,NiTe2,23.0
mp-571589,Mo2C,25.390536107062953
mp-2604,MgTe2,21.673367276955773
mp-866165,YMgRh2,47.93415302672943
mp-32407,TaVO5,44.045954130866306
mp-675078,Ba(FeS2)2,19.022612474274602
mp-1918,FeRh,79.38224620080193
mp-9244,LiBC,133.5234641829556
mp-768358,ScInO3,59.5421484538381
mp-569610,CoI2,1.2478948701255588
mp-676518,In3SbTe2,6.0
mp-865497,V2ReOs,144.3020943760308
mp-1211,ScCd,30.358582097644877
mp-540925,Hg2AsF6,5.10760861557957
mp-9898,BaCuAs,33.48179166514437
mp-975106,Rb2Bi2O5,35.22888502589929
mp-18775,Fe3PO7,47.580221038243465
mp-640024,HfInNi2,55.0
mp-557559,S,0.6680167436012203
mp-1068,CuS2,34.59506872249635
mp-2693,SnSe,29.283746030162806
mp-30581,Hf2Cu,58.014266995746695
mp-1008920,Mn2Ge,26.72823782311368
mp-864933,Mg2AgRh,23.6457188705372
mp-5986,BaTiO3,69.3640173052849
mp-28683,Ta(ICl)2,3.0
mp-784631,CrNi2,112.47690135972648
mp-865625,Na2MgSn,18.22154476164948
mp-776791,LiFeF4,29.0
mp-8159,TlCu4S3,15.584055373339734
mp-569331,Li(Sn3Pd)2,20.88542470295605
mp-754358,ZnSeO4,30.556115999605872
mp-30671,Ti2Ga,62.72819866906632
mp-985579,AlFe2,44.0
mp-9023,ScSiAu,63.0
mp-864741,Yb2TlPb,11.0
mp-570722,NbI3,2.270681199965457
mp-557523,VS2,8.456732257773782
mp-568584,N2,1.0
mp-34857,KNO2,6.0
mp-553303,CsCu3O2,7.3518687931130575
mp-768310,LaBiO3,17.456768385043148
mp-5323,CeAlO3,98.47153688647279
mp-866172,HoMg3,24.0
mp-541438,Rb2MnO4,10.983473662520936
mp-567313,Te,14.890269098213482
mp-20847,Ti5Sn3,48.421385429094286
mp-2260,FePt,92.0
mp-777801,LiFeF4,10.700343420703415
mp-12759,Zn2CuAu,26.391825340173696
mp-8237,Ba(AsPd)2,27.6645503080566
mp-3499,MnSbPd2,12.049990769720864
mp-770649,Li5NbO5,64.26607282566195
mp-631317,NaIrPb,7.0
mp-1009832,TaC,81.07027551572564
mp-1022,K2S,9.668124691164838
mp-2323,BeCu,69.69865040836834
mp-6985,Ti,30.4680883167622
mp-1018656,Ca2H3Br,26.0
mp-866132,Na2TlSb,18.533695348943226
mp-867507,TaGaFe2,124.38642620644606
mp-13082,Mn2CoSi,91.37172730347766
mp-568328,FeP4,118.19540986292856
mp-754671,YScO2,52.58900632577149
mp-1804,Fe3N,95.51995689117632
mp-44,U,110.08480679695192
mp-3094,SrAl2O4,45.29403741746457
mp-754126,CuAuO2,21.66727783915599
mp-23231,AgBr,9.56468313902148
mp-862473,Sc2AgRu,38.207462622787965
mvc-15350,Ca2Sn3O8,45.4211624868052
mp-10149,InSb,12.990472514927585
mp-7189,AlPd,65.0
mp-976254,Li3Mg,1.0
mp-101,Ir,216.50586906201409
mp-18968,Li2FeSiO4,44.521012587986334
mp-29481,Rb2WBr6,3.641585134858912
mp-861961,TiZnRh2,82.7212303583199
mp-1029498,Li6CrN4,71.75594400259163
mp-865527,YAl3,39.66986560451269
mp-10457,HfSiPd,92.47543459703544
mp-31584,Na3CoO3,24.80414218362869
mp-1017552,Bi2O3,30.039364034996535
mp-754759,Y2O3,62.0
mp-20805,PdPbF4,18.42264891837013
mp-7376,Sr3(AlSn)2,25.01119985635438
mp-560553,IrF6,2.68006993982436
mvc-15643,WO3,61.114563796235714
mp-19017,LiFePO4,48.0524326806621
mp-20757,MnAlGe,64.39053889418251
mp-14099,ZnAgF3,24.67920762732076
mp-640889,Tm(CuTe)3,28.98964185170273
mp-5632,DyAsO4,54.75824061087825
mp-17518,Sr2TaN3,38.0
mp-23153,I,3.5515689916975823
mp-34,Si,57.6823988849425
mp-10887,HfAlCu2,52.94584541644308
mp-568565,CrAs,66.33441356653451
mp-22784,InNi3,62.27203504008605
mp-2430,ZrGe2,72.84242725490174
mp-18922,Mn5O8,52.6233883150242
mp-510403,GdSb,33.0
mp-4711,Li2CuO2,44.117817908541404
mp-4438,CaSnO3,77.36615589790868
mvc-16068,CaNiN,54.83052432794696
mp-567431,ThCl4,9.888119528512489
mp-769777,NbVO4,32.887017514295536
mp-5388,Zn(SbO2)2,14.003625610452065
mp-1029442,Mg2TaN3,53.0
mp-568735,SiC,186.6660563550146
mp-15778,MgNiSb,41.87105993963654
mp-862364,Sc2OsPt,70.48353150277559
mp-3829,CdSnAs2,23.028996735279414
mp-20249,MnCoP,107.35308543138734
mp-10877,Ca(Al2Cu)4,62.89760039912358
mvc-14149,CoO2,35.2226499939338
mp-560902,MnF2,29.65562199926509
mp-7597,NbSe2,13.149817361099414
mp-977442,Yb2ZnGa,22.0
mp-30818,Li2AlPt,38.0
mp-567612,ScOs2,65.96903041534385
mp-19657,LaMnO3,44.188470452662436
mp-979073,TmMg2Sc,27.0
mp-12657,HfAl2,87.59694767271294
mp-25176,PbWO4,21.72389713971037
mp-1029763,ZnSiN2,19.883165267926195
mp-4255,Ba(CuS)2,28.671160437755056
mp-2802,HfRu,96.96602980184014
mp-11984,YMgTl,39.04650345749651
mp-571520,Si,61.31603379252637
mp-864992,MnNbRu2,88.1921262624215
mp-10312,HfVGe,69.9004572444411
mp-865385,V3Re,70.48607364131038
mp-764744,V2OF5,36.99842831745667
mp-764322,VOF,54.0
mp-3532,CrAgSe2,22.82324505384029
mp-2776,Ga2Au,12.41475315106459
mp-20426,Fe2As,43.61385498071538
mp-19252,K2NiO2,15.010445936257431
mp-605028,Te2Pd3Pb2,15.838415997364983
mp-568419,Mg3Ir,30.98484788357518
mp-375,UO3,63.1189972225383
mp-541837,Bi2Se3,8.424502944845703
mp-27821,Ag3P11,32.423436018645305
mp-865471,VGaTc2,74.44939054172347
mp-5671,Sr(CoP)2,45.209012847516746
mp-867250,LiZn2Pd,20.363852998285502
mp-761556,MnCoO4,82.24567303543094
mp-697126,Ca4(H4Rh)3,41.22502277591312
mp-11430,Ca3Al7Ag2,39.91707443880756
mp-694,VSe2,11.794214385244784
mp-19306,Fe3O4,64.3400292622369
mp-1029923,Sr2CrN3,46.21222110222269
mp-557259,MoF6,2.72180766731276
mp-2176,ZnTe,22.431774531735098
mp-1203,TiO,106.0
mp-12659,Mn2Nb,74.60425503300057
mp-862798,Pt3W,118.33254906790023
mp-11299,Cd2Hg,13.112413370691474
mp-13277,BaLiP,29.299701205582906
mp-561317,Rb2NiF4,20.06128341388704
mp-861481,Pr2AgRu,21.0
mp-867163,Sr2AgPt,20.0
mp-7000,SiO2,43.741471136260174
mp-1216,YbO,88.95743471264004
mp-975272,Hg,3.7342178922687967
mp-2510,ZrHg,23.84148662040387
mp-568014,Nb3Bi,64.46255736501678
mp-10140,Sc3TlB,54.0
mp-10996,Yb(MgSb)2,27.51126003165852
mp-30655,Ga4Ni3,62.2420855913688
mp-1006886,CeS,29.0
mp-774092,Na3CoO3,17.141289644444715
mp-559691,Ca2Al2SiO7,52.6880509867955
mp-571193,MnP4,115.13532746383869
mp-643432,H3N,4.724134800592118
mp-1070,CdSe,14.764938908062847
mp-510441,YInPt2,36.77053426147185
mp-754698,NbO2,51.13282982382625
mp-238,MnPd,51.377440039356145
mp-862290,LiFeRh2,60.15610720791889
mp-568901,NbFe2,86.73132067915398
mp-741,HfO2,94.0
mp-1029562,Li3InN2,58.43810271321328
mp-1821,WSe2,19.595768162552407
mp-13686,Nb5Si3,123.37425140773364
mp-19983,TiCuSn,52.03292739223353
mp-998981,TiAl3,68.82188103923563
mp-1007770,TlAs,18.45511971372908
mp-862704,ScZn2Pt,40.476028923154296
mp-2481,Mg2Cu,27.0
mp-962073,KBaSn,-0.0
mp-656887,Ni3O4,78.29103694463919
mp-21340,HfGePt,78.9071062261977
mp-8603,RbAgO,10.312126671788176
mp-2955,NaMgF3,41.64445597685121
mp-15679,CoAs,74.0
mp-30773,MgNi2Sb,37.325263573395354
mp-5589,Sr(MnP)2,46.18867125059565
mp-769889,TaFeO4,82.51502539811472
mp-300,YbPt3,64.0
mp-605860,Ba2LiN,6.138688486537825
mp-865924,LiZrAu2,10.793267809597282
mp-1029531,Sr3ReN3,28.0
mp-24951,YbFeO3,76.75058078416953
mp-22707,EuAgSb,30.0
mp-11201,Sc6FeSb2,45.358551821022786
mp-19774,Eu(CdSb)2,19.30897987522086
mp-25180,Nd2WO6,53.47498986031098
mp-4120,CaCuAs,43.36871719000201
mp-752735,PdO2,19.18783174730963
mp-8884,ZnTe,21.93503365546953
mp-1029659,Ca3FeN3,46.580359674166964
mp-1638,SrAl2,37.0
mp-18919,CoPdO2,36.394724051580226
mp-2513,As2Pt,82.7063379115407
mp-31339,ScInPd2,36.0
mvc-6921,MgMn2O4,41.40430926282714
mp-29400,CsFeCl3,4.271606270026772
mp-19279,Li2MnO2,59.84879962577506
mp-765183,FeOF,29.359848653189694
mp-4563,Ti3TlC,82.79905516940634
mp-7092,TiSi,98.90324755516264
mp-505824,Cs2PdC2,11.7798314858542
mp-30598,SrCuSn2,23.444623619842574
mp-754086,Li2CuS2,11.094728201579187
mp-24953,DyFeO3,84.0
mp-8300,Ba4As2O,22.0
mp-6766,CaMg(SiO3)2,64.12633791274003
mp-865032,Mn2PtRh,78.34148390705731
mp-600561,LiRh,47.387032734577616
mp-864839,Zn2PdRh,65.46447484748985
mp-20128,Eu(MnAs)2,34.364937894101374
mp-22400,MnCu2SnSe4,19.5572821476145
mp-582034,SiC,187.1591122804052
mp-763705,Zn2Ni3O5,82.63940362743385
mp-489,Ge4Ir,56.775748576823894
mp-7343,Y3Pt,19.12118476543652
mp-30351,MgAg3,2.3598712632210685