mpid,formula,shear modulus
mp-5396,MnCo2Sb,73.4586244958723
mp-12520,SrNi2Ge,31.7216183971002
mp-977565,NdBiAu2,10.0
mp-4551,SrHfO3,100.32640676797155
mp-10219,YOF,46.0
mp-2750,Cr2Te3,26.017546003649212
mp-998883,Ge,12.136593588165624
mp-5594,Sc2Si2O7,71.56560069695736
mp-13501,ErCoC2,99.0
mp-569581,Bi2Pt,9.111420642522344
mp-104,Sb,23.5746142377218
mp-3732,Ti2CS,134.4201682820443
mp-1058,PdF2,18.250199884335693
mp-30603,ZrCu5,55.91552338289442
mp-1029741,Sr3IrN3,38.267040550344475
mp-7426,Ba(ZnP)2,29.096780347240628
mp-2152,YNi5,72.2067232585469
mp-9177,Y2Al3Si2,64.6575227194931
mp-865355,Zn3Pt,25.308879944775963
mp-23155,Ar,0.2929398317470413
mp-20516,InPt3,63.68483158249249
mp-867144,CaMgHg2,15.548315356350956
mp-643989,KHCO2,8.836559635098258
mp-865097,NaHgPd2,17.94898841731652
mp-540,ScFe2,65.04229109029565
mp-2658,AlFe,95.4099861131015
mp-705538,MoO3,51.88498990391646
mp-780880,Rb2CoO3,15.127880641670208
mp-894,ZnPt,62.51662008871702
mp-862911,Ti2CoTc,94.05114538198616
mp-4748,NaNbO3,85.81524024124289
mp-11285,Ca3(GaNi)4,35.399194163415224
mp-557668,MnPtF6,19.50030316218133
mp-764060,Na2VO3,59.58317149847034
mp-973024,La3Hf,21.40094590669527
mp-2275,UF6,2.9028149072198954
mp-7298,Li(CuP)2,35.77169707424301
mp-510347,In5S5Br,15.91705670056292
mp-11790,LaCuSe2,29.018895552909235
mp-10381,K2CuSb,8.277889293992176
mp-16254,BaCuP,36.94809410568489
mp-8126,YCuSi,59.0
mp-1871,Fe2C,101.0
mp-561388,FeBiO3,77.0275682213968
mp-20196,NbTe4,20.68783916309256
mp-20817,GePtSe,65.80276836152015
mp-9158,LiCuO2,40.108694778182624
mp-16305,ScPRu,103.08469077439544
mp-27891,Bi2SO2,22.73798546348889
mp-2432,CaMg2,19.0
mp-550893,HfO2,115.4220267239035
mp-554813,NbCrF6,23.235575771704198
mp-215,YSb,29.0
mp-2089,ZrTe3,10.176381605625897
mp-4009,BaPdS2,14.064032611815453
mp-765499,Li3VF6,32.53490916666853
mp-4370,Sr(AsPd)2,33.517465231436766
mp-642822,CaC2,2.6734157088500683
mp-11523,Ni3Sn,11.383697760183091
mp-1029457,Ba(CoN)2,33.0
mp-865146,MgAsPt5,70.36279267845636
mp-22510,FeGe,76.0
mp-3909,ZrAlCo2,78.2029439183744
mp-568931,YbNiSb,33.02326578932179
mp-2696,MgAg,30.0
mp-4008,ZnGeAs2,37.43923584412058
mp-25062,MoCl3O,1.4171531992870063
mp-864927,Hf2ReOs,99.90387184774605
mvc-3525,VZnF4,23.896928206395348
mp-570791,SiC,186.5803689441465
mp-28731,V6C5,174.6279686814715
mp-2187,TiSb,45.00401684411032
mp-1986,ZnO,39.765479026639206
mp-27693,Sc(BC)2,151.0
mp-9946,ZnS,33.49667498102008
mp-1025172,Ho(TiGa2)2,60.0
mp-1658,Tl2O3,31.6123113727794
mp-971661,Si,47.0
mp-555760,S,3.638387096797232
mp-11250,Mg2Au,22.54328469769325
mp-23237,BiF3,31.047699280272216
mp-752928,LiCoS2,34.477638845599806
mp-867272,LiAlCu2,39.80106152387964
mp-569426,SrZn2,15.041246116522752
mp-31453,NbSbRh,40.81701938134313
mp-12760,Zr6Al2Co,50.924927419112905
mp-8432,CaCuP,51.37356372127226
mp-754812,Al2O3,52.20300700993997
mp-570256,Ag2HgI4,5.552770520114516
mp-12565,MnAu4,30.92739053029883
mp-938,GeTe,23.867594156593967
mp-2657,TiO2,109.75989155605387
mp-8211,GaGeTe,10.833149353327565
mp-765922,FeCo3O8,40.159826813143376
mp-1922,RuSe2,92.58306312901495
mp-218,Sm2O3,54.67246601596816
mp-893,ZrSi,93.36457913000044
mp-22977,CsVCl3,5.035459098394138
mp-1249,MgF2,52.0
mp-972828,Cu3Si,51.039390012641675
mp-11273,Be3Nb,125.80995772144131
mp-38194,YOF,64.79154642630559
mp-8621,K2PtSe2,14.29670452763512
mp-34289,TiNbS4,13.858574234048445
mp-7482,RbHgF3,15.00701002193074
mp-866271,LiNiO2,20.710306604224893
mp-21359,SbRh2,51.084281303871286
mp-1018070,Ti2InFe,24.0
mp-28884,Cs(FeAs)2,26.325452246585346
mvc-13133,Cu2SnSe4,8.783217259124521
mp-29900,NiGe2,45.0
mp-30180,Al4Mo,74.12734764662291
mp-865021,Be2RuPt,104.35232497535448
mp-21345,LaGe,37.750973489031814
mp-2371,Ga2Te5,13.849324539806414
mvc-3988,Ca2Fe2O5,37.954812907736894
mp-10154,MnSbIr,40.18168876873982
mp-779972,ZnCoO2,64.53402149456355
mp-505110,FeCuO2,50.36124011217589
mp-4955,AlVCo2,98.23103632603924
mp-2605,CaO,74.0
mp-867317,Cu3Si,50.27641104677734
mp-8927,TaCuN2,62.79536628455028
mp-2210,ZrCu,30.605358671933608
mp-978917,Sn3B,4.0
mp-1943,GaSe,8.93716161155293
mp-865652,TiMn2Si,105.12239611669906
mp-3589,BPO4,61.783282653188564
mp-675902,YCuSe2,27.97627325195927
mp-20422,KMnP,10.301225562789275
mp-21008,Ni3Ge,84.21728077106502
mp-16236,KAgSe,13.065777175399175
mp-2815,MoS2,17.658073063549356
mp-778364,Na6Ti2O7,25.224037168868165
mp-20800,ZrIn2,44.0
mp-1007824,GaN,23.357105583273373
mp-15901,Li2LaTa2O7,68.85517871893187
mp-978283,Mg3In,25.0
mp-8192,Rb2PtF6,10.0
mp-37620,LiMnO2,69.87848697700835
mp-644497,BaTiO3,11.597795491644636
mp-1029655,Sr3WN3,30.005889550224282
mp-7595,GeF2,6.716541424164115
mp-675568,Co2SbTe,60.17360628207658
mp-763867,MnNi3O4,87.384347552451
mp-7650,RbScO2,55.381569722532966
mp-865499,V2TcOs,129.45488928651164
mp-19870,GaFe3,54.096818515200425
mp-29618,NiP3W2,103.19312772707993
mp-560340,La2Pd2O5,48.98366041108493
mp-510584,MoO3,25.667460071890602
mp-34139,Mn2CrO4,55.13344663376429
mvc-11651,Zn(CrSe2)2,31.25332295803459
mp-19795,InS,14.779474663945464
mp-569051,MgH2,32.441354289024474
mp-9166,MgCN2,35.0
mp-974474,ReBr,48.0
mp-4964,YSbPt,47.403718296022866
mp-569639,TlCl,6.0
mp-1025176,HfGa5Ni,34.0
mp-18819,Ni2P2O7,60.0
mp-23227,CuBr,10.0
mp-12666,Be12Pd,77.58070794973312
mp-540719,PbWO4,23.435025597828197
mp-10903,AlPt,32.0
mp-754344,LiZnO2,48.02472670463433
mp-2450,CaSn,21.58490281165864
mp-862379,Sc2TcAg,43.46732768066156
mp-2207,NbSe2,14.102980857911177
mp-8608,K(Cu2As)2,19.222345394238488
mp-22052,Zn(InS2)2,28.0
mp-30366,Ca3Au,10.997832475080942
mp-29661,Si5Pt6,69.4257906105982
mp-961710,VSiPt,46.0
mp-867169,Sr2SnHg,24.0
mp-2199,Fe3Si,92.74259762301484
mp-2126,HfIr3,148.87392576526364
mp-12751,PuNi,16.834058080176128
mp-1018142,NbN,17.45674392072597
mp-3289,LaMgNi4,43.0
mp-7931,SrP,26.57038923963357
mp-3021,Tl(FeSe)2,22.0
mp-30737,YMgAg,17.246329245046283
mp-20181,Ce2C3,70.4906071418332
mp-861616,LiSc2Ir,36.982851662370145
mp-634431,KHCO3,9.979951192990661
mp-20698,LiCoAs,29.604445109126072
mp-22996,SbSeI,2.4945751159201377
mp-1009650,RbSb,3.0
mp-31578,Rb3CoO2,7.851864063414924
mp-2701,NbN,189.322751280528
mp-570485,SrAlSiH,40.12869441042758
mp-10155,P2Ir,128.530965044757
mp-862632,LiCa2Al,19.433996803648018
mp-11512,LiAl2Ir,55.34994259490915
mp-30404,Li2SbAu,20.0
mp-973890,HoHfRu2,72.0
mp-22566,TlInS2,22.326433948401093
mp-774,CaNi5,65.21390381515371
mp-2775,SrAl4,30.06306804973257
mp-4824,NaZnP,26.07714854719541
mp-568866,Na6ZnSn2,9.000944444708754
mp-610517,Ag2S,8.144294966103912
mp-8456,SrAsPt,29.953800813372393
mp-22909,ZnCl2,4.777155594027487
mp-569054,La2Co3,14.0
mp-1349,SrPt2,49.870351658763674
mp-865353,TmI3,1.9758013258732663
mp-1153,Li2S,33.15290852535193
mp-570157,ZrBrN,19.43140584292482
mp-30481,CaPt5,71.44637685070427
mp-973374,LiMg2,12.745283176938381
mp-2317,LaNi5,58.65770246270166
mp-20004,Zr2InC,82.38977276636051
mp-22065,UGePt,48.887843510255564
mp-672287,Li13Si4,27.63508522026121
mp-752849,Y2Pb2O7,70.73074344269232
mp-754311,Mg(ReO4)2,12.560202235924704
mp-75,Nb,19.896550288255106
mp-30301,LiClO4,14.0
mp-29750,CsMgBr3,3.9077751690020697
mp-685022,TePb,19.39489677144799
mp-625998,LiHO,7.398816412318878
mp-867854,Ca2ZnRh,18.29946595505089
mp-7692,Al(CrB)2,174.6706500585571
mp-763353,Fe4O5F3,59.76468534386054
mp-776678,FeO,26.22001277141331
mp-862703,Sc2AgAu,26.0
mp-1359,NbIr,105.23108242121418
mp-2395,Sb3Rh,51.602508657893026
mp-343,PrN,89.69380729574137
mp-1023132,K2Cu(ClF)2,10.418753483661234
mp-542,SrHg,18.0
mp-21029,Li2InPd,18.411705562477405
mp-2398,ScSn2,34.19140654815851
mp-31326,Mg2In,12.0
mp-5784,Na2GeO3,27.68974492588605
mp-1029878,SrMnN2,28.510503408745546
mp-25035,MnBiO3,50.5301579407024
mp-559976,Ta2CS2,27.260753246434582
mp-19365,Ba3V2O8,29.090217827630077
mp-867281,Tc3Pt,175.02968183001218
mp-976424,LiLa3,3.9797392435008816
mp-9615,LiTiS2,48.0
mp-15780,MgPPt5,74.86895845222296
mp-7622,KSO4,9.694348905913145
mp-862586,Re3Pd,172.7751530892112
mp-975383,RbCa3,6.0
mp-27848,TiIN,17.697508736018747
mp-5929,Na5SiP3,17.0
mp-16245,CaSbAu,23.744409939887465
mp-1027164,TeMoWSeS2,12.513943453468444
mp-1011860,Na2CoP2O7,25.0
mp-30593,ZnCu2Ni,59.1577042345827
mp-762506,SrNiO3,54.12776315527678
mp-399,Te2Pt,28.0
mp-23291,PbCl2,7.674033810288212
mp-25469,AlCl3,5.749792234949336
mp-571011,CsI4,2.0438941487117805
mp-11247,Li3Au,6.418848836301497
mp-839,V3Au,72.74330345863893
mp-8643,Os,231.0
mp-569249,Ta3Au,67.9573828213377
mvc-14201,Ca3Sn2O7,63.151243693193855
mp-5193,SrZrS3,35.91679040439661
mp-16482,TiAlAu2,25.46032154416989
mp-22414,CuSeO3,28.573425705414074
mp-4571,CaZrO3,85.0
mp-769218,Ni(PS3)2,7.1839938162871935
mp-1025345,Ti2CrTe4,38.0
mp-13920,Ba(ZnSn)2,23.04969042542466
mp-755018,RbTaO3,56.0
mp-22887,EuCl2,11.026009747503991
mp-3390,Y(CuSi)2,74.97991323498462
mp-567809,AgI,1.4439737959766366
mp-34195,BaCO3,20.04250976596661
mp-38280,LiTiO2,123.37446554338848
mp-753712,YIO,25.0
mp-19940,VAs,85.7362675138692
mp-11883,MgIr2,58.388115007193754
mp-7506,Cr5Si3,132.8411918178652
mp-997024,CsAuO2,10.196539831482493
mp-20197,Cr2GaC,116.0
mp-571576,LaTe2,22.286458262379213
mp-20320,InTe,11.667704151965639
mp-567345,NbRh,57.0
mp-2180,HfSb2,48.58588150159319
mp-13911,Ca(ZnGe)2,19.16280676300592
mp-12665,Be12Ag,31.686661536241413
mp-742,Ti2Cu,55.19409754222983
mp-542920,LaFeO3,76.82467620845969
mp-20595,Eu(AlSi)2,39.80128043620613
mp-1174,MgSc,27.303413185196142
mp-28395,B6P,190.37988366778296
mp-368,P2O3,1.807462865760164
mp-1968,La2O3,37.336152723779406
mp-20335,MnNbP,100.0
mp-23210,MgCl2,5.8281844926790525
mp-1814,BaAg5,13.0
mp-162,Yb,9.405890454950349
mp-815,GaNi3,77.37796555536858
mp-776827,LiFeF4,16.0
mvc-11649,Ca(CoO2)2,73.85820463205802
mp-2490,GaP,51.77542735374053
mp-10244,Zr3(CuSi)4,83.03664377168352
mp-13964,HfGeTe,61.52003175537728
mp-864980,MnAlRu2,127.44013755053899
mp-10712,ScRh3C,90.4715778551054
mp-560865,ZrCuF6,14.793342112229151
mp-995197,HC,5.0449525786288465
mp-569152,SnCl2,4.238406835262287
mp-566426,La4Ni3O8,53.0
mp-7384,SmF3,48.0
mp-22865,CsCl,7.672021868551062
mp-9575,LiBeSb,47.19724837280637
mp-774736,LiCuS,15.0
mp-6931,Sr(AlSi)2,38.34701279418703
mp-25122,VBiO4,44.99515151159432
mp-21098,UPb,10.894663317339857
mp-662,NiSe,24.679851694847496
mp-3924,LiNbO2,100.48260253050788
mp-17892,Ca2VN3,49.72382471652765
mp-862774,LiInPt2,87.12711214674465
mp-20754,LiCeSn2,28.16819648129009
mp-1334,Y2C,32.20768830480196
mp-190,ReO3,125.53583810653723
mp-862712,Sc2CoIr,65.73795335925928
mp-1017566,GePbO3,82.0
mp-10671,Sr3(AlGe)2,29.68931258528577
mp-14112,PdF3,20.697208086028603
mp-90,Cr,128.56794681281045
mp-849354,TiV3O8,59.69723389526681
mp-3441,Y(SiRh)2,88.44452376565957
mp-778409,LiVF4,9.89998640122469
mp-30651,MgGa2,9.346826445528984
mp-13311,SrAlGe,34.65869292087841
mp-6473,Ca5P3O12F,41.0
mp-601285,MnGaNi2,63.452154947152785
mp-504858,CoCu2O3,37.35827240557045
mp-2243,NbS,95.77035642129866
mp-695998,K2ZnH4,10.723919235272078
mp-85,In,4.904835514547551
mp-28980,K3BiSe3,6.705855043270322
mp-1424,GePd,44.59491439651085
mp-6304,Sr2GaSbO6,70.76458843122019
mp-568587,CrCuSe2,31.216278986101194
mp-971985,TbAlCu2,12.0
mp-571222,CsBr,4.6287009561674415
mp-7781,CaZrS3,36.693495092002756
mp-8094,Ba2Hg,9.0
mp-3702,FeCuPt2,73.40372942146996
mp-862338,Sc2CuRu,46.54906316172042
mp-9565,Ca(MgSb)2,26.0
mp-30242,Mg4H2O5,60.53288870692578
mp-12266,CaCuF4,34.07699308345562
mp-9973,VB,232.15905360718602
mp-1620,Si2W,188.7510024688689
mp-629015,BN,72.82253688221707
mp-697096,Na2H4Pt,12.558648089950607
mp-978493,SiSnO3,121.0
mp-5078,SrZnF4,21.316548824493264
mp-3504,NbNi2Sn,29.94532974634933
mp-2910,KAlF4,18.416566091028066
mp-19281,LaCrO3,86.25208943508775
mp-1029702,MgTiN2,77.31024778646066
mp-7891,Mg3As2,22.720357965490518
mp-8200,AgP2,26.0
mp-23229,FeCl2,7.0
mp-15965,Hf5Si3,87.5386699066157
mp-570690,SiC,186.5442442461482
mp-31118,SmScO3,81.17916136130991
mp-11521,ScNi,45.540504115170705
mp-866159,YZrRu2,62.23863187629168
mp-365,MgB4,113.0070268129677
mp-13963,HfSiTe,26.883114484696165
mp-5878,KZnF3,33.75348976345005
mp-1029750,Sr3RuN3,35.08780829542656
mp-1608,ZrHg3,11.508427840979884
mp-4343,Sr(MnAs)2,31.44782784609125
mp-571367,Hf(CoSi)2,105.5646631957103
mp-21662,TiFeSi2,115.99090800149521
mp-14827,Li7NbN4,64.39221928513047
mp-1002165,GeC,108.0498454868314
mp-568146,Pd(Se3Br)2,2.0266589758977656
mp-551873,Ca4Bi2O,29.0
mp-862424,Sc2TcNi,53.76225901665632
mp-3539,NbGaNi2,32.0
mp-867850,ScMnRh2,62.0
mp-752953,ZrTi2O,71.13128116066413
mp-1169,ScCu,42.79683539724631
mp-569073,LiSn,18.779507537827136
mp-8310,Li(NiP)2,41.09329060388434
mp-9556,SrZnSi,38.709393975179
mvc-15387,WN,147.0
mp-30788,SnMo3,100.98017501377888
mp-867117,Sc2CuPt,41.15222690524945
mp-865218,YbTiO3,110.0
mp-866155,TiAlRu2,86.0
mp-862339,Sc2GaAg,38.128607904472375
mp-8415,K2HfF6,23.893969301375822
mp-5921,TaAlNi2,53.6215263838329
mp-769785,ScVO3,73.25290354708565
mp-7581,MoSe2,15.410638693993144
mp-30658,VGaNi2,30.18097463379469
mp-976259,LiTmRh2,37.0
mp-862966,PmTlAg2,15.0
mp-1883,SnTe,27.59054393440622
mp-864616,ICl2,2.4599632614564695
mp-7938,KNbS2,43.94819541635508
mp-16491,SrAl9Co2,60.0
mp-12585,CrRh3,151.0
mp-865020,HfMgIr2,98.68125950048302
mp-20424,MgCo3C,112.99525315593849
mp-23214,CaCl2,12.749518478986547
mp-765880,Mg3Fe2O5,88.56510619785006
mp-23866,H2SeO4,7.016741783308067
mp-21215,InPd,27.87277238125197
mp-2291,Si2Ni,32.0
mp-20581,Ca3In,13.426738309654901
mp-10394,CrCoGe,71.46654344112041
mp-625487,Zn(HO)2,27.17613872347536
mp-762869,LiMn2O4,55.835629486471774
mp-774138,V2O3F,63.07267244916274
mp-573755,CsTeAu,3.0
mp-582360,TaPd3,76.49802792726119
mp-850251,Na2Ti9O19,58.48723024936015
mp-971836,Zn2NiIr,58.0
mp-641923,Cs2SnBr6,4.0
mp-861882,LiGeIr2,113.0
mp-10601,Y3GaC,63.93007567071979
mp-10884,AlFeCo2,98.10957885535672
mp-10173,Li,6.085723256421533
mp-22853,MoCl3,6.304620397549797
mvc-3672,Ca3Fe2O7,59.002969776469705
mp-10245,Hf3(CuSi)4,82.87396382622893
mp-568598,Cu2HgI4,9.094910417649917
mp-13089,Cu2SnTe3,19.91941209724229
mp-32449,VH2O3,50.950662004816884
mp-991676,NbCu3Te4,20.109343593414824
mp-1008274,Co3W,148.79559815910332
mp-11513,NbNi3,88.93739897445236
mp-978508,Si3Os,47.589238816780345
mp-613989,Pu,90.0
mp-865278,NbAlOs2,129.71593305461928
mp-865176,HfCu3,22.59418979367813
mp-8790,Ba2CuO3,39.35441244752421
mp-571513,Rb2NbCl6,3.818930982481227
mp-11649,Ca3SiO,44.0
mp-1990,Mg3As2,26.88864821298441
mp-580931,MgZn5,14.0
mp-1014111,Ni,10.58564752749832
mp-10777,RbCeSe2,18.647889239904387
mp-866291,AgBr,3.0
mp-22493,YInAu2,21.758136660502974
mp-21236,BaPPt,31.27955880709837
mp-2455,As2Os,118.5790928090744
mp-1434,MoS2,17.91826316694634
mp-27840,Cr3Se4,34.0
mp-23250,UCl6,0.0
mp-851027,LiFeO2,79.65441322406144
mp-1719,PuN,90.99419446284668
mp-862604,Re3Ni,175.08931387111824
mp-760375,Li3VS4,6.634729307644045
mp-755225,Li8ZrO6,63.90842866510806
mp-23004,CsMgCl3,5.178690422625459
mp-2894,ScSnAu,43.0
mp-13682,PdS2,16.795411753184172
mp-24946,CaFeO2,54.749817041243716
mp-168,Si,63.861667965166006
mp-971739,ZnCuPt2,51.0
mp-864623,ZnCuAu2,24.0
mp-30405,Li2SnAu,23.702727736211077
mp-3827,KFeS2,8.67265269581507
mp-23219,CuBr2,4.378262162876772
mp-3494,CeGa3Pd2,50.0
mp-998234,CsTlF3,16.78375746359984
mp-542854,Mg9Si5,38.0
mp-2652,Y2O3,61.49564364951085
mp-11917,Mg(BeN)2,166.0
mp-865165,HfScCo2,65.24043614929653
mp-984,BN,74.52154862689831
mp-628773,SnSe,4.062694350090503
mvc-15272,Ca2CoN2,37.448582384684684
mp-561306,NbCoO4,52.248973174906304
mp-1828,ThOs2,28.0
mp-87,Be,160.26522491635643
mp-22607,Zn(InSe2)2,16.200895688624822
mp-16993,Er2SiO5,46.0
mp-11800,Co3Se4,43.9871109728541
mp-11460,HfTc,75.8145074639808
mp-862337,Sc2InAg,32.94984448734526
mp-32884,Ag2S,8.582409595238293
mp-5106,TbCoC2,95.0
mp-16318,RbTiS2,30.667495686748058
mp-2345,Dy2O3,64.0
mp-864684,Hf2MoIr,80.47140172142299
mp-558733,SiO2,192.31684265312848
mp-2031,Be2Cu,125.41294857559521
mp-971694,Ge3N2,53.08182809777415
mp-28283,CsTiCl3,8.567987763224082
mp-755089,ZrO2,77.0
mp-866080,MgSc2Tl,23.42706662700045
mp-10778,RbPrSe2,19.695319478178106
mp-650,Be5Pd,132.0
mp-22904,CaCl2,13.084162601353027
mp-771123,ScFeO3,72.24446534372281
mp-10184,MgSbPt,35.0
mp-570466,Li2Ca,9.0
mp-510589,MnCuO2,41.26115022354706
mp-978557,SmDyHg2,15.0
mp-27682,NaSnS2,20.0
mp-21276,PbS,29.358100196888532
mp-6947,SiO2,203.4927967455412
mp-21090,MnNiGe,59.87337475507378
mp-863710,KAcTe2,19.0
mp-22323,In2O3,60.12107584933686
mp-862694,Al2IrRh,95.74144670547793
mp-684692,IN3,3.9479972568157815
mp-861943,BPt3,52.243995891866405
mp-12557,SrCuAs,41.06900261748737
mp-15896,Cu2SiSe3,28.328124249615026
mp-2560,Ti3Hg,48.91360341308222
mp-1009129,MgO,48.0
mp-4054,YAl3Ni,59.717005643296396
mp-27762,UBrN,18.0
mp-1018157,CrN,68.27849988348123
mp-930,ZrP,75.73988742972959
mvc-15604,AlCrO3,72.0
mp-4364,NbGaCo2,79.29111709046427
mp-20012,InSb,18.806285661415853
mp-23513,K2PtCl6,6.2132234545835985
mp-28895,Ba(P2Pd)2,34.128473369867876
mp-754150,La3GaO6,44.116300905084174
mp-8560,SF6,2.0
mp-756297,ZnIn2O4,58.866423741889314
mp-32,Ge,45.35776713373353
mp-775761,AgClO3,7.2312044769816755
mp-16238,Li2AgSb,21.221290355816816
mp-644607,CO2,1.3278363140299323
mp-5456,Sr2CuO3,54.24269993268591
mp-15178,Lu4C7,75.41041152358542
mp-1879,SmS,11.469002396818324
mp-1029834,HfMgN2,75.10364636728545
mp-976982,Li2Mg,3.7609540842628326
mp-971891,Zn2PdAu,28.0
mp-7770,Sr(ZnAs)2,33.0
mp-23205,MgI2,3.8448806622067853
mp-20983,V2InC,103.10298886258623
mp-862602,ScAlCo2,91.2558309408962
mp-30356,SrAg2,17.0
mp-23176,SbCl5,0.4533377093500984
mp-763576,Li3(FeO3)2,47.65880427941568
mp-8459,CdSO4,25.820746630294927
mp-20627,YbGa5Co,50.0
mp-570935,LiI,5.215810864167031
mp-2676,TaBe2,117.79920136540804
mp-23486,RbNiCl3,5.188233672936357
mp-570923,YRe2,56.589291646475026
mp-27705,Li2Si,25.74041993498844
mp-568273,LiI,10.765356208278362
mp-28084,Rb2PdBr6,5.9216217563387
mp-565348,LiMnO2,66.15067814324323
mp-1412,Ti3Sb,25.078677153893647
mp-510380,Mn3CuN,108.27463363852779
mp-632296,HF,1.943852891480152
mp-554352,Ba2CuF6,23.97192323782909
mp-1654,CeNi2,39.970060912467524
mp-16528,Al6Re,70.15239137451505
mp-606393,NbBr3O,3.9142008967405744
mp-752730,Ba2GeO4,29.641087825794287
mp-1029536,MgZrN2,68.71284264199285
mp-973455,LiMg2,16.6720716350374
mp-569679,ZnSe,7.278134550979423
mp-9371,ErF3,44.1643357715273
mp-22864,Bi2Pt,23.28120748869483
mp-867212,TcOs3,243.3040953426368
mp-867917,CuGeRh2,67.26219014799042
mp-570483,V5Si3,57.32368486219948
mp-30427,BaZnBi2,18.538962794857927
mp-1408,MgHg,-0.0
mp-22795,Pb2Au,12.646417525175018
mp-1001835,LiB,35.49038083245953
mp-2851,VSb2,47.15637373211257
mp-22631,Co2N,88.2470771995385
mp-862892,PmCdHg2,20.0
mp-4428,CaSiO3,40.06321273934135
mp-1029309,Na2HfN2,21.577279178550768
mp-863737,Ho3In,30.0
mp-12684,LaAl,33.969667857255104
mp-20557,YSiNi,61.819200467755394
mp-4354,Tl(NiSe)2,14.0
mp-15845,SrLi4N2,29.08337247292041
mp-568662,BaCl2,37.184410611059604
mp-978534,SiGe,55.832167455794895
mp-27253,Au2O3,38.1743317970036
mp-1373,Nb3Ge,44.0
mp-9921,ZrS3,11.0
mp-15684,K2CuAs,9.703564155091678
mp-21907,NbSiAs,104.05877744893013
mp-4593,Mn3AlC,128.60404763285595
mp-566279,TmFeO3,74.40206308560623
mp-550070,NbBr2O,12.32463728264874
mvc-13158,CaVO3,85.5984264203336
mp-11879,BaNiSn3,31.51136757951359
mp-984765,Ba3Te,18.0
mp-865049,HfMgPd2,37.781447049658226
mp-21167,Ni2P,41.712266257652075
mp-7187,TiAlNi2,59.02286874218945
mp-866082,MgSc2Tc,22.95409175865725
mp-361,Cu2O,8.352509762841914
mp-1014261,IrO2,77.0
mp-761310,Mn(AsO2)2,19.277936505482174
mp-1727,SrSi2,39.1990938663781
mp-20199,PPbS3,13.127847875004525
mp-570379,Cs2LiLuCl6,9.488911115753208
mp-561367,F2,1.946594093586708
mp-776490,Al2O3,144.05606357245614
mp-861875,LiHf2Re,47.90758048782346
mp-755450,La2Ce2O7,60.29277282609237
mp-132,Ca,10.0
mp-625054,AlHO2,79.85247795582276
mp-556927,RbFeF4,12.737678491130644
mp-1009083,MgSnP2,26.77927972198751
mp-867252,LiZn2Ni,35.288068642008255
mp-4030,Rb2Pt3S4,7.479784306450138
mp-11382,NdFe5,58.62385174896722
mp-30798,NbZn2,82.32953578712295
mp-2667,CsAu,6.214342360265652
mp-7575,LiZnN,84.89798033148799
mp-19201,CaMnO3,92.57115048360296
mp-570896,Tl2Pd,13.905033319182738
mp-30847,TiSnPt,56.07946371119272
mp-778781,Li2NiO2,13.354651709103305
mp-1001581,LiC6,117.7980801890949