mpid,formula,shear modulus
mp-27707,RbCoCl3,4.69446976083551
mp-10919,Rb2PtC2,16.613957043799182
mp-8624,K2Sn2O3,15.046216886460064
mp-13010,YSn2,35.72648970844182
mp-1944,CoP3,114.52804651154587
mp-777667,LiV2O5,35.95192689958331
mp-11725,CO2,1.95510827387301
mp-770398,NiSnO3,73.39038115419265
mp-865807,Ti2MoIr,88.54832679114367
mp-25886,CuPO4,40.90240307323417
mp-14115,LiRhO2,48.49596673932931
mp-13463,FeNiPt2,93.17863657842213
mp-2552,TeO3,96.16961363505173
mp-1852,UF5,10.671212882041676
mp-866086,MgSiIr2,87.87306594402054
mp-3250,Ni2SbTe2,20.291180375659984
mp-775777,LiFeF4,31.854310164518857
mp-30785,Mn3Pt,50.270276790280285
mp-7140,SiC,185.2296896982652
mp-56,Ba,3.850640555814051
mp-1018649,BC5,347.0
mp-2756,CeAg,24.0
mp-1013526,VS2,14.236001047409642
mp-7829,MnNbSi,105.0
mp-1019055,ReN2,253.45801624768575
mp-20679,Co3SnC,76.0826763319008
mp-864772,LiSc2Au,41.0
mp-569989,Nb2C,117.26559621854861
mp-5590,YMgGa,47.690336642796325
mp-4930,TiAl2O5,93.6995554170668
mp-567164,BRh,101.19619603964792
mp-2723,IrO2,103.52376894878469
mp-570604,TaN,179.0
mp-4019,CaTiO3,101.16885009123516
mp-19968,CaIn2Cu,30.98322196548173
mp-21027,CaIn2Pt,28.0
mp-615,YMg,19.794898404708835
mp-11023,ScAuO2,43.09836981228287
mp-5104,CaZnF4,22.0
mp-2533,NbO2,96.0
mp-973614,K3Sn,1.2577489307458114
mp-12065,Ag3Pt,34.10367091429874
mp-23280,AsCl3,0.5759794107547918
mp-11694,Cs2Pd3Se4,5.249615322687868
mp-313,YC2,40.29083647092358
mp-23341,Bi2Pt2O7,77.94891946583054
mp-4630,Li2RuO3,47.40981353988523
mp-1606,NbAu2,63.662035541031344
mp-1001833,InBi,13.59469272407161
mp-37741,Ba(LaSe2)2,26.0
mp-15685,Na2CuAs,18.19742693037604
mp-41,Zr,5.951945040939868
mp-1029375,BaCN2,11.0
mp-1444,CaCd2,15.538045688828886
mp-556777,Li2CO3,40.79822790256956
mp-15657,TiCoSi,102.03729153789124
mp-998552,BaHfO3,102.61877387688328
mp-2284,AgF2,10.940047786124053
mp-864733,MoI3,2.0
mp-19384,Ni(AsO3)2,80.60058450389056
mp-23179,NiBi3,10.091681874570618
mp-867887,Sm2CuIr,32.0
mp-30234,Cs2WCl6,3.517542998822705
mp-570418,YbI2,2.9054663350528265
mp-998866,C,161.88205260278153
mp-5692,TbRhO3,67.4212107717145
mp-561078,Rb2CoF6,7.544153022945963
mp-22637,HfNbP,99.49763022900915
mp-29015,CaThBr6,3.941842639974305
mp-972961,Sc2NiRh,37.0
mp-756214,YAlO3,102.48273180345396
mp-1021431,CsNaICl,6.0
mp-1118,SiNi2,64.0
mp-567871,Nb5Si3,64.41247490270743
mp-28610,CsAgCl3,6.170302461955365
mp-863664,Pm2CuGe,25.0
mp-11453,HfPd3,84.61845620495887
mp-541567,VSbO4,100.55182260905659
mp-553310,CsCuO2,11.249482009056942
mp-12741,MgPd2,41.71937602004375
mp-856,SnO2,86.57333103525312
mp-28896,CuBIr,68.0
mp-1682,ZrAs,65.06119416036748
mp-20337,ZrPbO3,46.3517305073521
mp-7819,Pd4S,36.91417966404995
mp-34688,TiO2,56.38670717423109
mp-567397,W2C,165.73084701035262
mp-5347,KAlF4,15.892036008519554
mp-6972,YCuO2,34.95982894714603
mp-626512,FeHO2,29.472527669862863
mp-849066,FeS,27.0
mp-867924,LiCdPd2,20.59597343987512
mp-853247,FeBO3,43.56415214842197
mp-20941,UIn3,37.0
mp-10198,Mn3PdN,73.6589452626798
mp-7707,Zr(SiNi)2,81.71912835458104
mp-11549,VPd2,75.57426948992068
mp-973986,Ho,27.0
mp-610972,MnGePd,34.40075727308927
mp-8017,AlCuTe2,24.32109139603989
mp-1029312,RbVN2,35.61290675840984
mp-21347,CoBMo,178.0
mp-38818,HfNbB4,219.2132722172964
mp-2251,Li3N,34.187935334421084
mp-19917,ZrSiTe,29.430604254266854
mp-2354,Ti3Hg,67.8522254291895
mp-11834,CuNiSb2,37.93739843682771
mp-20,Be,84.0
mp-1019612,Cs4ZnO3,8.0
mp-30981,Te(HO)6,18.197262482350823
mp-865600,Y2IrPd,38.80703635780724
mp-20533,SrIn2Pt,27.32005446559456
mp-569196,YNi3,51.993261426866134
mp-20344,Fe3Ge,68.05741765419818
mp-771484,VCoO4,47.54622877462495
mp-861651,Li2PdPb,1.059900261668723
mp-776250,Zr2N2O,69.0
mp-755000,LiTiO2,39.89862118928974
mp-1714,FeSi2,127.30397057804285
mp-973100,ScCu3,1.0
mp-775531,LiMnO2,52.51138260657969
mp-13853,P3Ir,113.80204821688831
mp-4287,Sr2SnO4,49.86286293016579
mp-755974,Na2CuO2,24.0
mp-31703,CrOF3,18.025930219412448
mp-568121,Mn4Si7,133.73057156390405
mp-23037,CsPbCl3,9.436762224111536
mp-20708,In2Ni3S2,33.07386441603153
mp-103,Hf,55.82078406786974
mp-864919,MgTiRh2,77.16967749144074
mp-30465,YBiPd2,4.0
mp-867306,AlCuAu2,27.843572661132555
mvc-11944,V2O5,24.696682149760534
mp-7486,BaNiS2,28.669081696743607
mp-13450,HfSb,60.812570726654975
mp-4574,YbTaO4,36.843520067959425
mp-540793,VCl2O,18.09920020575233
mp-8187,K2ZnO2,11.236227159092719
mp-10463,YCo4B,58.20888400673327
mp-16960,AlPt2,85.07509305879869
mp-778757,Na2CoO3,19.637498392161838
mp-865490,V2CrFe,106.96843494838907
mp-567618,Si5Pt12,39.004657139429625
mp-6908,YMgZn,27.538462602250423
mp-14790,Ge(Te2As)2,15.125515221876288
mp-30764,LiPt2,70.14773215647256
mp-778746,VOF,65.0
mp-1022728,Cu3O2,36.64713318722975
mp-862623,ScSnRh2,160.89362494944632
mp-7498,Ti5Te4,35.80954082307065
mp-1880,SbF3,7.506092399847745
mp-11073,Ti3In3Rh2,56.04874846232688
mp-401,Sc2S3,37.16694735461232
mp-755570,Li(NiS)2,20.0
mp-776626,LiVF4,29.907085471579407
mp-6962,Ba(AsPd)2,32.846337925393684
mp-540284,CuPO4,29.108328260538922
mp-559408,NiPbF6,23.056044675182942
mp-2170,Li2Pt,30.600830434218782
mp-15659,Sb2Pt3,26.67883902484354
mp-690760,TiH,32.47764568835893
mp-22876,CsI3,2.046372043311892
mp-979751,TaTiFe2,72.0
mp-568186,YRu2,42.970530357382316
mp-570670,YOs2,49.47307079226443
mp-755071,SnO2,49.581550654203156
mp-472,UAl2,7.2472439845744745
mp-504731,EuF2,29.385699862038692
mp-15316,SrMgF4,29.91851650670586
mp-675634,KBi2F7,18.43264842515646
mp-8577,Sc3GaC,85.409098186051
mp-978261,MnBe2Co,94.0
mp-9830,NbP,77.0
mp-22050,Hf2In5,45.0
mp-3933,Mg2PN3,86.91756459115973
mp-18816,Fe2SiO4,72.0
mp-12778,VOs,115.00850739019305
mp-865990,Y3Al7Cu2,62.92886093727346
mp-953,NbZn3,71.48652877695879
mp-2649,Zr5Sb3,0.4172903533040913
mp-555718,SrNiF6,22.55099073919123
mp-2838,UNi5,91.0
mp-559276,AlBPbO4,46.62716642027932
mp-864974,Hf2CuOs,57.19794261170527
mp-866001,AlVRu2,123.10913018278059
mp-7070,Mn3PtN,76.85964203156091
mp-626620,RbHO,10.089483683986694
mp-1023936,WSe2,6.673120387482937
mp-3427,LiAlO2,52.475457493760395
mp-755219,ScTlO2,35.0
mp-13365,SrZn2,19.39966773243744
mp-567769,Ca(SiPd)2,41.0
mp-755478,CdBiO3,32.73260604980599
mp-767101,WO2F,28.802615303927983
mp-22489,HfCuSi,85.12075005588859
mp-30595,CuSnRh2,65.0
mp-11499,YMg2,22.773527930535497
mp-1002124,HfC,31.967740115373307
mp-9060,RbPdF3,24.077247981519466
mp-9987,Nb2PC,140.2962216147308
mp-4846,MnSbRh,30.47265937975493
mp-771742,Co3BiO8,66.0
mp-696114,CoCl2,4.0
mp-29615,Ca(MnBi)2,13.708400299307526
mp-643,ThO2,88.1171248256027
mp-17287,TaTe4Ir,13.01005972183487
mp-1007760,Ge,45.81577879611525
mp-996983,AgAuO2,17.201651220507575
mp-37514,SrCuO2,62.96348089057843
mp-30570,CrGaFe2,49.264938234614725
mp-867896,ScZnCu2,30.479786108031448
mp-6988,FeN,60.38453236500746
mp-5190,ZnSnAs2,30.313573374628373
mp-9208,V2B3,237.2487830509272
mp-10521,Y(AlGe)2,34.31878315977478
mp-4826,CaCuO2,62.97225943389862
mp-24956,ErFeO3,84.40689429533879
mp-640095,La3Co,12.111915449280255
mp-753195,Li2WS4,3.7584133624622345
mp-11718,RbF,13.638926621885387
mp-13452,BePd2,66.2124634349599
mp-10161,KZnSb,15.859880931509585
mp-1145,TiB2,252.7460078646214
mp-867911,ScCdPd2,10.310867017305712
mp-8352,SiO2,54.19029485903178
mp-10991,YCuAs2,48.43634049235273
mp-1696,CdPd,42.22202850310674
mp-5971,YBPt2,51.32089589708429
mp-23791,B(HO)3,6.5735927029155095
mp-1025170,Ti3B4,213.45681750164445
mp-9927,MgRhF6,26.85197150336225
mp-13154,Fe3C,90.67839167998328
mp-19418,VCrO4,54.528909581946316
mp-500,TaSe2,13.0
mp-23260,BaI2,5.912221538330899
mp-974058,LiCu3,19.0
mp-690490,TiVO4,113.605948432868
mp-7591,GeAs,38.0
mp-11870,Hg2Rh,39.0
mvc-678,Ti(WO4)2,21.046737627713497
mp-866163,YInRh2,59.0
mp-571059,YCd3,18.688582712826708
mp-5639,Mg2SiO4,121.0
mp-6459,CaMg(CO3)2,43.69941742508777
mp-9687,K2PAu,8.868799786907276
mp-567666,Ba3BiN,12.351536761685873
mp-2593,AlNi3,84.35083822628161
mp-760492,Na4PtO4,30.491283411397816
mp-79,Zn,37.03565726967342
mp-971700,ZnAuO3,1.6495227026740906
mp-545820,SnO,21.322965695266767
mp-763351,Fe2O3F,61.1324678549899
mp-558928,KrF2,1.5672531898838904
mp-4771,TiAlCu2,62.22834477265031
mp-676416,V2CN,188.785766088182
mp-29520,LiAuI4,4.27680018561787
mp-22736,InCuS2,25.497561982333856
mp-865868,LiZrRh2,46.21458199704607
mp-171,VNi3,100.80012916880602
mp-1019,YNi2,46.70713204500112
mp-567279,ZnCl2,4.5624112546744815
mp-12593,ScIr3,111.07573954831423
mp-566278,WO3,81.72148173001075
mp-1029407,NaCrN2,36.06779482504517
mp-542429,Mg3Rh,26.860957324181037
mp-867927,LiVIr2,110.09180427283155
mp-1014251,HfZnN2,86.19987642915675
mp-21171,MnGaCo2,79.96827152765223
mp-1014,ZrMn2,14.635878992987607
mp-33683,AgSbSe2,19.48818114003339
mp-19602,Ba2CoO4,20.891733107254904
mp-762971,Li2V3O6,47.48802871670227
mp-753081,Li3(CuO)4,22.47449407584891
mp-20826,CuTe,8.811727552788113
mp-510412,Si3Ru4,103.49229872299158
mp-772246,TaVO4,98.37925407524382
mp-997100,SrAgO2,37.63873660822159
mp-22859,HgI,4.091270201854542
mp-754363,Ba2HfO4,59.7969811287177
mp-981382,MgHg5,5.198804781870703
mp-13590,LiB(CN)4,7.1664443465875625
mp-685941,In4SbTe3,19.148404970165856
mp-3838,Li5ReN4,45.79255643847991
mp-995214,H6PbCI3N,6.705407856753986
mp-82,Tl,6.939044255231089
mp-875,AlOs,118.0
mp-18288,Ti(SnO2)2,15.772144861770705
mp-644483,Ti3SnH,25.420905411001073
mp-753315,Mg3ZnO4,99.76340989030355
mp-4728,Cu2GeSe3,25.80844997239256
mp-567278,Sr(Si3N4)2,98.9350272324868
mp-3671,NaNbO3,58.734653241377146
mp-1016827,MgGeO3,106.0
mp-7463,Cu3P,40.47583659885298
mp-11407,GaPt3,78.86075306475655
mp-22262,CoMoP,122.0
mp-22313,Na2PtO2,27.31725349447887
mp-15895,Cu2SiS3,36.03312639539885
mp-7910,Al2HgTe4,15.784505987611773
mp-14815,TaTe5Pt,11.84818621283889
mp-12630,MgSeO4,39.76813844094613
mp-760381,CuS,16.934893316306756
mp-30461,BiPd2Pb,23.0
mp-636328,TiPd3,87.63597943154802
mp-9664,K3BP2,7.2535243686302575
mp-28077,PbBr2,2.4013030327538445
mp-19069,NiAgO2,37.17093340082451
mp-19102,Sr2FeO4,63.15723643824428
mp-980192,YbOs3,46.0
mp-997042,TlCuO2,8.122651809475403
mvc-3263,CaFeSiO5,37.562224777180255
mp-7631,SiC,186.84520177636418
mp-754213,Li2ZrCuO4,64.0
mp-977375,HoBr3,2.171979473672097
mp-20483,Pb,12.528098069204033
mp-972042,Zn3Cu,39.807153943495
mp-2340,Na2O2,29.30367636226913
mp-756638,NbRhO4,82.51717407687198
mp-24842,KCoO2,21.206861898651393
mp-753371,LiCuS,5.6510135480937445
mp-774150,MnAl2O4,78.11740295736845
mp-2123,Nb3Au2,60.81034461943553
mp-770002,AlCrO4,104.0
mp-35143,BaNbS3,12.512898209513445
mp-1024067,Na2ZnS2,14.0
mp-27606,ZrAs2,70.63274622132823
mp-5223,GdAlO3,108.3693187102058
mp-2211,V3Pt,93.53026705758649
mp-16356,TiNiGe,83.3623745051693
mp-865907,LiZn3,18.60316264542614
mp-977435,ZrAlRh2,100.0
mp-9988,Nb2CS,97.20446102548463
mp-19376,TiMnO3,61.83161940772982
mp-20621,NbInS2,26.519926484533702
mp-31328,MnInPd2,28.30323773257991
mp-16523,Al3Pd5,49.57820462587376
mp-978270,MgZr3,35.23963655481347
mp-13434,CaMgNi4,50.38668439581364
mvc-12031,MgFe2O5,323.6671018347426
mp-7038,TlPd2Se3,11.854281723106153
mp-910,NbC,196.80312262823998
mp-811,BaPt5,63.22803194879853
mp-28872,RbBrO3,9.43131893535434
mp-973432,LuScRh2,37.0
mp-570641,SiC,187.268808590234
mp-559092,ScF3,40.75681811413472
mp-976256,Li3Mg,8.0
mp-571247,Al3Mo,97.33615031605896
mp-3686,YbBRh3,86.0
mp-1071998,SmCo2,21.0
mp-871,FeSi,138.63790852193077
mp-292,V3As,109.11997596131201
mp-7007,NbSe2,5.930563596569126
mp-866164,YMgHg2,23.68932449720525
mp-67,Sc,30.266037319593398
mp-23954,Na2H2Pd,17.4346051427206
mp-1029838,SrCrN2,31.728035555333985
mp-2271,NaPt2,68.12753480366071
mp-12533,La2Hf2O7,89.22538580637966
mp-862340,Sc2GaCu,45.871092622713725
mp-769661,CoAgO3,15.07608820156074
mp-557569,SmAsS,53.0
mp-9339,NbP,109.20994289741722
mp-12962,Zr6FeSb2,58.116858519406996
mp-1019743,Ga3BN4,133.75384714080707
mp-557257,KVF3,33.71207038435955
mp-755646,LiCuO,19.001656165492047
mp-11700,BaCuSb,28.81387135814939
mp-632311,Ta2H,64.88953578394221
mp-505212,Cs3AuO,1.9276777513558128
mp-4586,LiAlTe2,12.997577248222587
mp-226,FeS2,135.14002794039214
mp-984785,AcMg3,20.0
mp-867107,BeSiOs2,140.34654819815296
mp-3886,Zr2AlC,90.0
mp-27148,BeP2,72.75716527633844
mp-645159,FeBiO3,70.07893605330128
mp-22522,ZrCuSi,84.092472567629
mp-1077,B2Ru,167.57440084518268
mp-19391,NaVO2,50.386499317630786
mp-19862,EuSi2,21.848058917161694
mp-763056,FeOF,62.49389369189753
mp-3038,Al2HgSe4,18.871919821341915
mp-867156,ScGaRu2,66.95535720341432
mp-351,SiNi,81.76886025452139
mp-24428,KH2N,8.020230359937322
mp-770107,Fe2CuO4,47.22939403319766
mp-8182,As3Rh,71.56540774493484
mp-999027,Ti3Al,31.84312007138936
mp-32450,VBr2O,16.83766946821327
mp-1190,ZnSe,27.529949964394678
mp-570558,Rb2NbCl6,4.029458558509917
mp-865280,NbAlFe2,123.83692924799074
mp-31055,Sc3InN,81.26376334931958
mp-30444,Be22W,150.03030507470098
mp-30491,MgCd3,12.035443944079402
mp-1029520,Mg2CrN3,47.94865036749889
mp-1009594,Pr,14.394472009594615
mp-573,Ni3Se4,34.0
mp-380,ZnSe,26.48824864807808
mp-25030,TbMnO3,69.35018895737127
mp-819,HfCr2,68.17370399608633
mp-35717,LiDySe2,30.0
mp-30867,ScRu,51.607273201600655
mp-1589,TiCr2,72.0
mp-1746,MgF2,56.01344446208663
mp-13108,SrHfO3,88.83478208836573
mp-6914,CaGa,24.4997468285384
mp-974641,K3Tl,3.0
mp-22922,AgCl,6.917251375895067
mp-756683,HfBiO4,60.07957249549296
mp-778725,Na2FeO3,18.441731091656862
mp-569837,Ti3Sb,55.769694650636644
mp-675045,Li7VP4,13.699065943551528
mp-773450,TiCrO4,59.66138538170493
mp-20327,TiP2,90.91496884825486
mp-764895,LiVF4,34.28638114083299
mp-761315,MnFeO4,56.90465988908014
mp-867137,ScVRu2,88.8542325942354
mp-867897,ScTaRu2,101.16269600842472
mp-1256,HoGa2,53.3653434323271
mp-23533,K2OsCl6,4.0
mp-865795,LiSc2Ru,32.60473599631286
mp-7339,BaSiO3,29.687660551744113
mp-510623,Fe3C,80.7501667949966
mp-569364,Be22Re,152.39475576044845
mp-22950,CsNiCl3,7.0
mp-9548,GeAs,15.109576092285216
mp-777556,LiVF4,15.99324082178052
mp-829,AlPd,52.053538046936254
mp-865131,Hf2OsRh,46.0
mp-20155,CoSn2,54.65321342291057
mp-384,MgP4,36.78672771249366
mp-10918,Rb2PdC2,13.724653293949599
mp-11695,Rb2Pd3S4,6.711414178651693
mp-568880,YInPd2,27.35599537705604
mp-12360,AgSbTe2,17.664933120840473
mp-8093,Ba2Cd,9.211064519242136
mp-542903,ZrPbO3,61.506794182069136
mp-11808,ScNi4Sn,55.38497930563721
mp-20194,CeO2,71.8180072707618
mp-2074,Li3Sb,27.0
mp-22908,BiCl3,3.970594887868368
mp-978518,Sm2Ag2O5,8.918612446485131
mp-9459,Y4C5,51.70124917008873
mp-776784,Li3FeF6,32.16012453153369
mp-542812,GaTe,6.937190973634713
mp-12527,Ti2Te2P,13.973346152867016
mp-1008280,CrCo3,149.61440722556415
mp-766951,Li3VF8,7.3295231405677725
mp-17702,Yb2SiO5,29.279496932161283
mp-20174,Ni3Sn4,47.46027294663597
mp-560242,NaMnF3,27.254720497238175
mp-743,RbN3,9.182016554282386
mp-865019,HfGaRh2,89.0717005571356
mp-680932,OsPbO3,73.2186826974302
mp-16297,Sc3SnC,82.0
mp-755483,Al2O3,109.98762700580185
mp-772856,CuHgO2,16.198198474053722
mp-19133,YVO4,47.3027524213941
mp-552787,FeClO,15.695815587428925
mp-505804,Ti2CuSb3,49.642396874949924
mp-11233,ZrAl,67.61714001761409
mvc-4415,Ta2O5,60.90402567824005
mp-11736,ZrSiO4,101.0679437183592
mp-14793,Mg2SiPt,59.73776837858103
mp-12608,CuPt7,73.65488382393829
mp-542569,AlRu,103.1178884478754
mp-557938,HfVF6,33.01876726254566
mp-11,As,27.91491023832373
mp-39105,MgTa2N3,201.4905576549192
mp-862684,LiHf2Os,54.0
mp-29145,H3N,4.246536285235082
mp-865014,Mg2Cu,28.629179722737568
mp-17177,Nb2ZnO6,57.382496894322216
mp-10125,SbIr,59.24761991216366
mp-756597,Li2HfO3,53.17682397677285
mp-774096,Li2FeO2,46.01392414701778
mp-24289,HPd,38.43708855584481
mp-505531,FeS,18.506398976713253
mp-612118,Kr,0.2895575881690037
mp-973983,NiPd3,40.08350051921932
mp-833,CaPd2,37.08021861448941
mp-20311,FeSe,13.143980643881097
mp-4419,NaNbO3,99.0
mp-4573,TlSbTe2,18.169535604945413
mp-21481,Pr3Pb,20.0
mp-708,LaAs,39.87962056161243
mp-3822,SrCO3,29.567818326791805
mp-10850,SbTePd,31.407595824461197
mp-567484,PtCl2,4.0881926217102285
mp-30840,Ti2Pd3,44.0
mp-18817,NiSeO4,41.83861986907079
mp-21313,Mn3GaC,115.33415008687516
mp-21859,CuAs2,23.01589871555093
mp-10985,RbCu3S2,20.025704505243038
mp-432,NbRu,53.02918603155866
mp-22154,In2Au,17.679421952658508
mp-510430,Li13In3,17.10072978070453
mp-1326,Nb3Sn,28.440434670457286
mp-9918,LiGe,22.0
mp-11873,TlAsPd5,49.077850127972965
mp-10021,Ga,15.0
mp-2247,AgN3,4.600614990800373
mp-753192,Yb4Sb2O,36.10154395809258
mp-975906,LiAl3,34.061786461434664
mp-22447,Zr3P,64.0
mp-30562,Sc2Co,12.278623081301113
mp-510409,TiSiNi,104.02750939025438
mp-7582,GeS2,13.717998596903133
mp-864840,NbZnRu2,76.57547602877804
mp-1029037,MoW3(SeS3)2,14.242603354515689
mp-862699,ScTaOs2,122.04113950001171
mp-11464,MgHg2,12.371155557761226
mp-761293,ZrCoO3,49.11795498048796
mp-865665,TiReTc2,122.79757566419191
mp-769673,Tb2Bi2O7,23.62924280703451
mp-153,Mg,17.720124356684472
mp-18513,Ba2MnSe3,19.843210591585766
mp-30805,SrNiSn3,25.553733970318703
mp-9972,YSi,65.16045765971177
mp-16828,Li3B7O12,37.2598304859457
mp-867187,ScInIr2,79.06345641509148
mp-9964,Ti3TlN,47.34927946560729
mp-29111,Al2Fe3Si4,108.62059884123205
mp-12693,Mg2Rh,39.87241362157353
mp-3821,K2PtF6,10.0
mp-15642,SrMgSi,32.941358709007524
mp-139,Sr,6.406668681219827
mp-684969,Sc2S3,38.65772214467943
mp-7859,ZrS,43.95993829307945
mp-12927,Ba(BeN)2,61.160061930138475
mp-29809,Ca2GeN2,54.0
mp-2136,Sb2O3,20.323472976035138
mp-961713,ZrSnPt,87.0
mp-2577,Mn3Rh,133.0
mp-10734,Ti4O5,92.2500912535663
mp-770252,CaNiO3,4.492071087762172
mp-22899,LiI,12.967351576594305
mp-1029337,Zr2SeN2,74.68016412396193
mp-8973,NaSi2N3,116.05974947816713
mp-29638,BiTePt,32.0
mp-8842,CaSiPd,33.20944640618678
mp-16304,YPPt,49.22491157783959
mp-20812,InN,108.0
mp-7906,Al2HgS4,21.5332178633728
mp-2156,TiS2,14.053955172792888
mp-747,BaPt2,38.0
mp-25082,Mo(CO)6,2.0
mp-862556,ScSiPd2,15.043220465339697
mp-685194,Li4Ti5O12,60.106566133848546
mp-22284,SrInPt,24.84944081064149
mp-867761,Sc2CoRu,59.56239523155485
mp-647924,Eu2O3,44.0
mp-22691,InSe,6.3924110851676925
mp-1687,BaPd2,25.289935535410518
mp-108,U,42.01266323858517
mp-996990,BaAgO2,44.03466309924461
mvc-15,CrS2,20.878802704420146
mp-569594,Fe7Mo6,112.0
mp-10185,Mg3ZnC,34.0
mp-146,V,30.499982374487942
mp-558149,BF3,1.9954100812487543
mp-862287,BeAlRh2,104.0
mp-5652,Y2Si2O7,59.328853104435176
mp-769096,MnP4,86.20935763672445
mp-555934,VF2,34.58232825166839
mp-8682,Ca2SiO4,99.0
mp-975321,LiSi3,4.89584084252731
mp-29419,Hf(Te2Cl3)2,1.7537190982397657
mp-971909,ZnPd3,16.370431551327602
mp-505368,As2Pb3O8,20.81426999186201
mp-2049,ZrMo2,58.9179728443281
mp-753671,PNO,55.74518205588284
mp-862778,AlSiRu2,112.0
mp-9814,Cu3SbSe4,20.616982444152626
mp-675120,Cu2SiTe3,24.96496983891579
mp-7814,Ta2CS2,24.81695191011709
mp-1545,Nb3Rh,89.04206926559637
mp-2794,Fe5C2,90.09529248488613
mp-568069,Ti2Bi,22.417906076871947
mp-2997,ThB2C,125.28078300246678
mp-570657,Mg2Si,8.0
mp-867206,LiCd2Pt,19.13691953487727
mp-9561,VS2,16.302914983087973
mp-567412,Y5Sn3,44.41253910510756
mp-1010071,CrCo,105.0
mp-764362,LiNiF3,38.5328621836464
mp-571166,CaBr2,10.0
mp-17875,Ca6GaN5,30.0737296920476
mp-985587,Al2O3,3.1946987496661454
mp-11361,MgCuSn,29.81797760582593
mp-569807,RbTiBr3,6.5236741087547525
mp-28364,Rb2CdO2,14.0
mp-4720,Si2Ni6B,76.85576977755326
mp-24972,Fe2O3,86.07764080662619
mp-29374,KGaSb4,13.801698830318253
mp-2173,P2O5,32.39155825835253
mp-140,Ga,6.344549205222203
mp-865707,TiSnRh2,69.93527465607579
mp-569558,AlAu2,32.35133218481154
mp-341,PbF4,22.50773183515586
mp-685036,Al2O3,89.32712157152326
mp-973471,KReO3,112.0
mp-941221,Li(BH)5,9.0
mp-862589,Re3Pt,201.94489941063952
mp-4876,Tl3SbSe3,6.212092341482508
mp-21104,Hf5Sn3,46.681569604698275
mp-864654,Zn2NiRh,57.327330947842604
mp-13679,PdF3,19.152520042250508
mp-3970,K2TiF6,10.899017997719305
mvc-10896,Ti2AlO4,73.36893462856449
mp-19178,CoAgO2,26.85225651366056
mp-769864,Cs2NiO2,8.411365600241947
mp-865178,Hf2IrRh,16.003309026464716
mp-764648,LiTiO2,91.92954832594921
mp-753059,TiOF,29.06017970354238
mp-7431,Sr(ZnSb)2,18.162630313061484
mp-30490,Mg3Cd,20.95874206654177
mp-16905,Ba2MnTe3,15.198463874611132
mp-864661,ZnCuPd2,51.54361648937636
mp-865521,LuI3,2.0521537292185643
mp-675464,CdIn2O4,41.440720573343604
mp-21301,ScInNi2,48.58914520109796
mp-22894,AgI,6.066299957139809
mp-568619,SiC,186.75477818885003