mpid,formula,shear modulus
mp-2103,CuAu3,28.0
mp-11444,YGa2Ni,49.24123835555368
mp-10645,TbSe,0.0
mp-3887,Li3GaN2,88.02184352975056
mp-13178,AlN,122.60784137342648
mp-10649,Si,32.18190159634848
mp-173,MnAl6,67.36002737542427
mp-9961,Ti2CdC,53.373503929237614
mp-7771,Sr(CdAs)2,28.087942994364234
mp-36864,Li2TiO3,88.18451694778048
mp-796,Nb3Al,20.56500095773297
mp-867916,ScGaIr2,87.0
mp-21141,Fe2CuGe2,61.51216485052787
mp-27277,PCl3O,1.4429101528298856
mp-700,GeSe,14.301847197928055
mp-867780,Al3Cr,82.77196746737886
mp-569671,ZrSb,58.1385727404033
mp-2920,LaAlO3,105.0
mp-780811,NbVO4,53.0
mvc-6590,TiO2,109.32576828677307
mp-879,La3Te4,23.174112640962964
mp-3340,TaAlCo2,98.0
mp-8703,Na3SbSe4,5.5955002901520325
mp-991,WN,151.0
mp-861918,Sc2TlCd,21.715486966170136
mp-23202,InI,7.03846470686863
mp-23253,RbBi2,2.0
mp-362,Ni3S2,55.75223480532711
mp-11229,YAl,34.66885907798082
mp-13100,MoPt3,104.14231035196012
mp-27440,ZrCl,6.627638080552616
mp-1578,V3Rh,105.0
mp-1029566,CsOsN2,15.021391136338933
mp-759943,Al2O3,110.85187494605644
mp-11019,GaCuO2,58.717036546597356
mp-1898,CeSi2,47.44986653986902
mp-266,Zr2Pd,48.76110204287074
mp-669347,KCuF3,27.599718490697303
mp-542496,Ca6Ag16N,23.474204155264268
mp-2672,K2O2,15.478987500740564
mp-505071,Si2Pd9,37.3456343139133
mp-11500,MnNi,31.067915378244066
mp-23297,BrF3,3.5503861248191426
mp-7787,HfSO,57.200796520988064
mp-15988,Li2CuSb,34.24909862471333
mp-752881,Li2CuS2,15.0
mp-571353,BaSn5,15.0
mp-20582,LaIn,13.309234292891116
mp-867914,LaMgAg2,18.0
mp-16501,HfAlPd2,26.270164341240285
mp-972352,YbMg,7.0
mp-1121,GaCo,66.72254047294471
mp-567817,HfGeTe4,11.009772034262934
mp-5659,Ti3SiC2,138.60479020686574
mp-12802,AlCu3,45.74287944876225
mp-12558,LiMgAs,36.58505790852193
mp-989635,CaMoN3,45.50632604457913
mp-972793,Si2B2O5,59.97412190594217
mp-634381,V2Zn2O7,21.522626937867926
mp-567681,CsPbBr3,5.389214155231309
mp-363,NbGe2,104.98875907100029
mp-20662,Sn4Pt,29.06779938591943
mp-22434,HfFeP,124.91605341668293
mp-19713,Sc3In,39.364069103801185
mp-631383,MnCrRe,25.0
mp-15669,Ti3Te4,37.66937024624896
mp-3597,BaRuO3,46.72441619076665
mp-3726,Li2GaPt,30.31992500333141
mp-29816,Ag2HgO2,12.013380043247366
mp-755263,CrS2,17.810457616107367
mp-13944,Li3AlN2,100.91834628697895
mp-5163,LaRhO3,58.38855502343867
mp-21328,HfSn,16.265930946479074
mp-542090,Na4Al3(SiO4)3,28.626199622082638
mp-4681,NaNbO3,51.42859069677096
mp-600125,HfInCu2,48.71733761381691
mp-869,TaAl3,103.53177967912134
mp-8053,YCo,29.698718774613727
mp-10379,Hf3(Cu2Ge)2,74.34899247673124
mp-569289,Hg,2.9130884192451862
mp-600089,CsPbBr3,7.374451815247676
mp-979712,DyYZn2,27.0
mp-22463,TiInNi2,42.102898933016355
mp-1716,Rh2O3,103.88278562574007
mp-1272,Cr3Ru,95.7953863031992
mp-864657,HoI3,1.8315430213660653
mp-753722,LiCuS2,15.28503505862126
mp-1016845,ZrCdO3,43.0
mp-7089,KMgSb,14.152465797871766
mp-20740,Tl4Te3Pb,13.306689538229602
mp-23053,PbICl,3.662900368720392
mp-14338,Cs2Pt3Se4,6.0
mp-754826,CsScO2,15.489153942315395
mp-34993,LiAlO2,122.52868256482401
mp-864987,MnZnRh2,60.0
mp-976280,LiBr,7.969020525468286
mp-28568,Rb3CuO2,9.225255135847156
mp-760,FeSe2,91.79034442298294
mp-12700,NbPt3,100.0
mp-866188,TlCdRh2,51.26052604160023
mp-567750,ScRu2,49.318343245928446
mp-305,TiFe,97.01736811949809
mp-862370,Sc2PdRu,53.65260705261542
mp-635966,MoO2,50.05861145846354
mp-863709,Ir3Rh,202.0
mp-12071,Ti3As,47.3444616637191
mp-9996,SiP2,10.0
mp-30952,GaCl3,0.9224418919489656
mp-12105,RbO2,8.269903112550825
mp-571053,Al5Mo,85.51280282637467
mp-1437,LiCd,15.236651676721067
mp-866071,MgTaOs2,98.67722369449717
mvc-3559,YMoO3,19.340919748503147
mp-1123,HgS,15.0
mp-865448,TiGaRu2,85.34966530492773
mp-21342,V3Sn,21.90802499910408
mp-570112,Cr3C2,147.05799982374685
mp-11107,Ac2O3,35.0
mp-10883,AlCrCo2,93.08542806685406
mvc-2597,Ba2TlBi2O7,4.1989418401957135
mp-316,MnV,122.28570702495777
mp-862622,BeRu2W,119.0
mp-865939,LiMg2,22.01773564740875
mp-1285,PtO2,87.0
mp-569600,Ge3As4,28.54551318737556
mp-19893,PbCO3,21.05614756162224
mp-7162,Sn,19.7438843762444
mp-764673,Na3VO4,19.892174433417583
mp-764360,LiVF4,24.396406252674126
mp-11313,ZrCd3,27.889026506254176
mp-22872,SbCl3,1.0974125532533667
mp-2330,Nb2Se3,42.0
mp-675127,FeSbO4,92.81672296668648
mp-867915,ScGaCo2,84.09191713352419
mp-556520,CoF2,36.15109403448818
mp-21117,FeGe2,76.54430636374471
mp-1001023,BeC2,44.73353525702305
mp-32479,Tl3VO4,8.14315986109138
mp-761341,TiVO4,108.5049680851171
mp-19149,NaNiO2,68.05601121368828
mp-1018809,MoS2,17.42622248695316
mp-5795,CaMg2N2,73.18795026091625
mp-865011,Mn2NbAl,99.31757660614777
mp-13453,BePd3,37.26807683249425
mp-555763,ZnS,32.60847885700477
mp-569511,NiTePd,38.0
mp-29556,Tl2WCl6,4.67200912953296
mp-775620,CoOF,55.46727007107124
mp-13513,SrNiGe2,37.17048721593608
mp-22925,AgI,6.672914077769632
mp-22467,Sn(PbO2)2,16.926219931780633
mp-978798,Sm3I,8.0
mp-504974,Fe2Mo3O8,42.129990262314095
mp-568610,Bi,13.029850121430956
mp-1019087,CaSnHg,18.0
mp-1029656,Na6WN4,37.43058395089281
mp-867120,TaMn2Al,107.0
mp-556194,SrSbSe2F,15.605878728629
mp-20408,InGaTe2,13.080974589804145
mp-31038,CuSe2Cl,5.400739844381358
mvc-2125,AlFe4(CuO4)3,21.442687808454014
mp-30777,MgPt3,75.85006436924259
mp-998968,TiMo,32.04453504469191
mp-864835,Hf2CoIr,38.80082210849464
mp-4908,Y(CoGe)2,68.0
mp-31496,Li2Sn2Au,21.23446583913001
mp-19395,MnO2,28.880353139464283
mp-2583,TiRh,49.37352287849583
mp-33104,Sm2O,43.0
mp-753657,TiOF,95.6076113982258
mp-10752,Er,27.0
mp-866075,MgTaIr2,185.0660148221957
mp-30208,YCuP2,49.03833625954256
mp-452,CoAs3,83.05194131503984
mp-14142,TiZnO3,50.8470933831406
mp-27743,BiF5,10.939511828110255
mp-463,KF,16.502932274237562
mp-20066,CO2,2.65413657704849
mp-11465,Mg5Hg3,21.8584099615813
mp-1282,VC,204.14332035611525
mp-10136,Ti2ReB2,189.08698061853408
mp-19086,BaCoO2,30.535133669098467
mp-862371,Sc2RuPt,60.564230109729344
mp-315,PbF2,22.0
mp-10497,SrC2,14.934375366964696
mp-864916,Hf2TcRh,88.50310468873302
mp-7914,NaScO2,70.49031701996361
mp-867922,ScAlRh2,83.7305568492225
mp-30807,ZrNi4Sn,62.16287359967826
mp-31011,Y2Si2Rh,62.556696716924975
mp-4227,BaVS3,6.5910859231484675
mp-7083,LaSi,44.17090955084559
mp-28736,Pr4RuI5,9.674451772671254
mp-504594,ZrBr,5.672358085780001
mp-510404,GdSe,37.13605844384943
mp-973561,LiCe2Ru,5.0
mp-1025134,HoCu4Pd,39.0
mp-11038,Zr6Al2Fe,47.86335949231547
mp-626794,Ni(HO)2,5.4868376598056985
mp-22746,CoSi,115.0
mp-973554,K3Sm,14.374192991479097
mp-10259,Zr(NiP)2,57.32016016622092
mp-862365,Sc2OsPd,60.70293970430481
mp-1001602,B12W,114.88997841963356
mp-755066,Al2O3,83.26212475352449
mp-10281,ZnS,33.095861117527534
mp-631,TiC,175.63310758691597
mp-1029739,Li6FeN4,69.3276426650433
mp-3031,BaSi2O5,33.2536512936894
mp-561699,Ba2FeO4,29.0
mp-763326,CoOF,41.966934352443
mvc-13470,MgBiF6,22.0
mp-19413,AlWO4,119.8524070116035
mp-169,C,92.27192212379265
mp-1591,Al4C3,112.8375953337995
mp-10597,Ag,27.901350415633267
mp-754516,LiNiP,32.711053632524745
mp-10405,Yb(AlSi)2,42.25871293004981
mp-775845,NaCoO2,43.18795485565033
mp-569850,CeBr3,11.0
mp-26,La,16.087561513473215
mp-13915,LiNi2Sn,28.07808354831533
mp-568402,Sr(SiPd)2,42.24762566952815
mp-5538,YSnPd2,25.0
mp-19210,CoPtO2,58.77269553094098
mp-1592,Ag2Te,14.359401483832723
mp-28273,K3CuO2,12.692220066850659
mp-608366,CuN6,7.0
mp-763352,V(CO3)2,10.684849802782699
mp-1029368,Mg2VN3,54.226946488427934
mp-22863,CuI,3.155172376491206
mp-7472,RbAuO2,12.146922831830391
mp-980947,SrCaHg2,9.0
mp-5853,LiSi2N3,121.3256659117864
mp-866296,AlCuPd2,4.390353221339558
mp-5515,Li7MnN4,69.26667031434269
mp-557427,K2CoF4,12.469217750847545
mp-22270,CoP,111.06980569769152
mp-3201,Li2GaPd,25.380671782831893
mp-6008,Ca3Al2(SiO4)3,96.88735610089199
mp-776320,CuAsO3,10.510490996110027
mp-9549,ScFeGe,52.97660434340632
mp-24,C,503.786999577332
mp-861666,LiRu2W,84.74989274333602
mp-5733,CaSiO3,47.0
mp-7876,Ba(MgGe)2,33.416310213352965
mp-6917,TmAgSn,40.0
mp-754262,Zn2As2O7,25.803635390772804
mp-22888,CaBr2,9.732190040795569
mp-865486,VZnRu2,81.33218921775936
mp-865155,MgAlRh2,84.8156349466596
mp-568083,LaNi2B2C,81.0
mp-23173,HgI2,1.7793145804488812
mp-248,Fe2N,88.80431423583315
mp-971752,ZnCr3,71.5784555504457
mp-30619,Zr3Co,34.0
mp-977012,H6PbCBr3N,6.0
mp-756132,Cu(SbO2)2,6.812740998190581
mp-10908,AlRe,64.36776969077208
mp-568560,TlBr,7.095248005814077
mp-3521,NaBF4,11.638433897243171
mp-561589,Sr2Fe2O5,53.12419500016556
mp-14796,KPt2Se3,13.0
mp-1994,HfB2,242.0
mp-12103,N2,0.2295489188599621
mp-30594,Cu4Pd,49.1432743450516
mp-21075,HfC,179.8151317845858
mp-866107,Ac2IrPd,19.0
mp-864988,Mn2AlCr,102.2775255082363
mp-74,Rh,144.84742912862228
mp-8277,Sr(CdP)2,34.0
mp-25005,MnSnO3,54.47513115431279
mp-558137,AlBPbO4,45.70481743984456
mp-29624,Mg2Al2Se5,9.453376800383877
mp-1941,GaNi,42.431799547878704
mp-7302,CrP4,99.88641223106069
mp-15322,ScCuSi,76.0
mp-844,Ca3N2,33.60433693726563
mp-642855,Mg3Ge,2.560260354741805
mp-961656,VFeTe,55.0
mp-10196,Ta2N,120.94723905966816
mp-2932,Y2Si4Mo3,98.4692172484438
mp-4056,CaSc2O4,82.0
mp-23154,Br,2.8924489514585545
mp-18751,Mn2ZnO4,60.84272136969509
mp-23797,LiH6ClO7,10.884087723273897
mp-9321,Ba2HfS4,30.218051349538808
mp-11738,Na3PS3O,12.617028210460804
mp-865893,LiZr2Tc,28.903714617562393
mp-2987,Li2MgTl,13.687280577320356
mp-22565,MnSiRh,69.47314774078396
mp-975053,Rb3Ba,115.0
mp-865297,Ho2InAg,24.0
mp-2646,Mg3Sb2,17.609612647183987
mp-2242,GeS,17.333129214254466
mp-620571,CaInPd,22.639897113835445
mp-8937,CrSi2,172.0
mp-2286,Li2Se,26.59629996731
mp-28013,MnI2,4.16296185390305
mp-22992,TiClO,13.292756156263248
mp-11675,NbTe2,19.76823518100068
mp-862711,Sc2CdIn,30.943684217917557
mp-864953,MnV2Cr,98.65958615486812
mp-216,Sc2O3,79.0
mp-23856,LiHO,8.299746793145419
mp-5788,NaUO3,53.92496254017293
mp-569103,Mg3Hg,6.762822409995892
mp-865382,V3Ru,91.60906958790949
mp-20086,MnSn2,47.67759278621394
mp-2874,In2Si2O7,61.0
mp-570744,Si3As4,38.91996695391745
mp-1001019,Mg(ScSe2)2,20.0
mp-29646,HfAs2,74.87347762864738
mp-29352,Ba2PdO3,44.21614848669691
mp-3283,RbNbO3,17.951507996605326
mp-866279,CaCdPd2,18.231002758814487
mp-975990,NaLiO3,8.0
mp-1062,CeMg,20.888885537469033
mp-6996,SmB6,100.20914037891777
mp-20401,HfCuSi2,86.67637167610954
mp-1933,Cu3N,38.279781066266594
mp-19896,Li2GePbS4,19.438592403395358
mp-10052,TiAs,64.45922180005161
mp-865,CaB6,86.18740517721426
mp-571033,NiSe,7.543526295602094
mp-5495,Ag2PdO2,14.0
mp-28460,Br2O,3.3610228637047785
mp-865878,Ti2TcNi,72.21950863216766
mp-673635,Fe3N,93.28940616571064
mp-570784,Hf2Al3C4,156.0
mvc-11780,MoS2,33.32526384674722
mp-771532,Li(NiO2)2,54.26052079029808
mp-27793,Nb2Se,57.4201951582487
mp-28952,PdSO4,11.651422857923887
mp-864982,DyBr3,2.2345780829150783
mp-864883,MgSnPd2,26.019576368927808
mp-12537,Ti2GaC,108.2274182249539
mp-989560,Cs2TlSiH6,7.653379528209222
mp-865160,MgGeIr2,80.42289015482737
mp-567841,Be3P2,72.03162922981281
mp-10255,Nb3B4,198.2266212951776
mp-865929,Cd2PtRh,42.90600007547326
mp-567749,Y(SiOs)2,84.67248176680644
mp-1357,P3Rh,95.53573080188872
mp-567703,Fe3NiN,87.0
mp-24659,UH3,57.71755242227543
mp-1047,Ca3N2,38.0
mp-780545,Na3VO4,17.498743424431918
mp-864787,NpCdPt2,32.0
mp-7006,SrNbO3,80.5839976988138
mp-2229,ZnO,65.0
mp-10635,SnSb,23.17870325008694
mp-23137,Ba2YBiO6,69.0
mp-21199,Na3(GePt)4,26.480088162164282
mp-756490,Li6MnS4,27.0
mp-10667,SrAgP,34.779403444714745
mp-3679,NiSbS,50.77574811088381
mp-21163,SiPt3,42.0
mp-865653,TiNbRe2,114.72369967831548
mp-2480,OsSe2,105.91529576312321
mp-633538,B9C,119.18368607364224
mp-4984,SiB2Mo5,138.20702318104838
mp-4883,Ba(FeP)2,55.58729041082181
mp-27757,Be4B,134.14000134964692
mp-545467,Li3(CuO2)2,30.813560272812875
mp-334,LaF3,38.104661130195375
mp-973092,ScCu3,36.43892163098208
mp-1009746,ScP,11.0
mp-7350,Li(YSi)2,46.0
mp-19833,InAgS2,15.73294227679384
mp-10910,Al2Ru,103.0
mp-11454,Hf2Pd,55.15689092708273
mp-9212,NaAlO2,44.669992374914095
mp-557713,Ba2LaTaO6,47.86484456136243
mp-10076,Hf3(NiGe)4,87.36258856584291
mp-570568,W2NCl8,1.2268528419820168
mp-5518,GaAgSe2,17.814632312230152
mp-503,ThS,35.0
mp-1025441,Ta2AlC,121.76682581496941
mp-38035,SrCO3,19.683988682920106
mp-19330,CaMoO4,33.05942892519809
mp-1029542,Na6MoN4,36.66777980520842
mp-1081,V3S4,70.37496448181169
mp-4230,Sc3TlC,82.0
mp-1409,TiNi3,97.2867389587968
mp-4096,CeAlO3,93.31338961415014
mp-862361,Sc2NiOs,63.712063245902996
mp-1509,Sn2S3,11.260885149597154
mp-675025,SbRhO4,91.0
mp-27731,HfH2,33.67438348159199
mp-27198,Cd(NO3)2,10.838896512417323
mp-11021,GaAuO2,65.0
mp-22345,TiCdO3,5.0
mp-862374,CdInPd2,23.9854798326534
mp-1018850,OsC2,202.84540035207849
mp-2968,Sr(MnSb)2,17.264384609387474
mp-3020,BaNbO3,89.574012744157
mp-644481,ScO,96.85871197510528
mp-569775,ZrAl3,63.61113550617479
mp-541013,TiI4,1.0
mp-1963,NbRh,79.29594479602916
mp-30383,Hf2Au,59.002049988668574
mp-55,Sn,13.0
mp-565771,CuMoO4,42.32165809232592
mp-5165,Th(SiRu)2,89.0
mp-5159,LiGa2Pd,2.7894995170776458
mp-27507,ScCl,6.192545090366767
mp-1029771,Ca2ReN3,1.0
mp-593,Al4Cu9,69.74031006186166
mp-2381,ErRh,46.0
mp-30739,Mg3Ir,28.0
mp-30784,Mg2Zn11,33.38069577631839
mp-704645,CuO,25.0
mp-24844,MnCoO3,70.55341983744472
mp-142,Ga,34.555148793108664
mp-8046,Ta4N5,172.1119454245772
mp-5549,MgSnAu,23.0
mp-777595,LiFeF4,16.133679839375404
mp-28945,Si2NiP3,55.774712336625726
mp-12972,Zr6Sb2Pt,59.45669870198935
mp-20648,V2C,116.86645572128523
mp-2213,FeNi,91.94168526220088
mp-981313,KTbO3,7.0
mp-864765,Na3HfF8,18.839077729017028
mp-1018102,ZrPd2,28.98552186847569
mp-11644,Li2Ca,7.5963735093313725
mp-753746,Rb2O,3.5917075999883847
mp-865000,HfScIr2,169.96451117396876
mp-2252,ScB2,194.29255521629918
mp-776205,Hf2N2O,80.92738338576893
mp-675926,LiBH4,3.5130278197805573
mp-546279,ScBrO,14.209569258969893
mp-10183,MgSbPd,28.910485668989487
mp-13150,BN,10.183643454472424
mp-23021,K2ReBr6,5.813271539824117
mp-10694,ScF3,40.655916356058114
mp-1139,Co3Mo,133.2104232789299
mp-27562,Na2Pd3O4,34.97525898111189
mp-9960,Y3TlC,63.57879184972657
mp-568792,Si5Rh4,89.94598812574421
mp-573697,CsCl,6.218730185255567
mp-22662,TiGaPt,56.785034241167146
mp-864715,HfInCo2,76.12517354631862
mp-4156,Li2ZrO3,58.61918538701766
mp-1012551,BaBrCl,12.370620699532859
mp-973935,OsN2,117.4374711972109
mp-30028,YSi2Rh3,98.85971262807394
mp-9550,ScMnSi,74.84576201646573
mp-1025165,Zr(VGa2)2,86.0
mp-2225,Be2Fe,146.04660731086153
mp-602,Te2Mo,12.921596923758345
mp-567597,Bi,14.35958557657797
mp-28110,Rb2PtI6,4.734190814330704
mp-579496,Fe3PtN,100.25601516471643
mp-22344,Sn7Ru3,37.92289456239649
mp-23499,K2SnCl6,6.043451461326108
mp-20554,InAgSe2,14.151652527770546
mp-866213,TiTc2Mo,116.32921132103
mp-12956,Yb(FeP3)4,108.43893261002304
mp-753802,Sc2Ti2O7,48.34453018920511
mp-764004,NaNi2O3,52.08170748987092
mp-1029610,Ca3CoN3,45.24198528269466
mp-7443,Nb2CrSe4,47.0
mp-11826,CaPd5,49.438620558681535
mp-22151,BaGePt,22.234148177581574
mp-19619,NaMnPO4,39.66197169606175
mp-13914,LiCo2Ge,93.72027540007072
mp-16718,Al6Tc,68.0
mp-770086,FeNiO3,40.62194697424428
mp-30686,Zr2Ga3,66.80083831788754
mp-10700,MgNi3C,58.904793989669116
mp-550436,V2CdO6,42.111448690149324
mp-18778,Zr(WO4)2,29.22323723143679
mp-19817,Y3InC,63.304740820107824
mp-5409,Y4Al2O9,64.32002088119646
mp-763634,VCrO4,73.9125917076047
mp-12723,CaAu,18.011887761228547
mp-569779,ScSbPd,45.82055581839302
mp-862864,Pa3Ge,51.0
mp-23715,BaH2,16.926529566814132
mp-999549,WN2,226.07674543127342
mp-639874,Ta2Al,54.32905056335511
mp-11490,Li2ZnSn,19.875954550338268
mp-27850,TiNCl,19.586862834621307
mp-18835,VPO4,65.9149782816354
mp-971779,ZnRh3,89.5928937488789
mp-14797,RbPt2Se3,12.31276329274625
mp-557403,LiFe2F6,33.248881548464944
mp-1057,Al3Ni2,85.5045640031051
mp-2070,CoS2,73.28001327261785
mp-2572,SrMg2,16.015156020207783
mp-18875,MgWO4,70.08380731619033
mp-850275,Li3SbS4,6.272923194422015
mp-5221,HfAlCo2,88.89118840720221
mp-571163,MnSbRh2,65.4926257180001
mp-1001916,HfN,86.93747842407686
mp-771986,Li4Fe3O8,56.07630193436813
mp-545756,ZnSO4,8.205568540911933
mp-31577,K3CoO2,9.4526028622819
mp-29663,Si3Ir,334.0768306193153
mp-24960,HoFeO3,84.15321814559024
mp-1001788,ZrB6,40.50388967598107
mp-865611,MgRh3,84.54220354206478
mp-7604,Mg3NF3,81.16643589255344
mp-15951,BeF2,25.31705544302309
mp-19292,Co(AsO3)2,72.77417494099191
mp-866069,MgScRh2,58.04078257393631
mp-775906,Y2O3,64.58132872122792
mp-30580,SrGaCu2,25.615457276160754
mp-16495,AlCrFe2,96.61309262355266
mp-754701,CaTiO3,59.03083942911326
mp-10739,TiPRu,103.19971357142951
mvc-11532,Ti2AlO4,73.0
mp-557993,BiO2,23.674532646859607
mp-2403,YPt3,70.7402848852704
mp-19747,Ni3(PbSe)2,22.0
mp-5285,SrSO4,24.0
mp-3587,Sc(SiNi)2,62.0
mp-4864,CaMgSn,29.075458943956622
mp-865966,BeAlIr2,125.0
mp-12725,NbAgO3,79.35369294108584
mp-427,FeAs,80.91981302032056
mp-1786,Ti3Au,70.73486588256128
mp-9579,AlTlSe2,13.462469593161357
mp-13061,Y2O3,42.0
mp-972866,Sc2PdAu,22.0
mp-862311,Sc2GaRu,37.96386639603922
mp-1029826,Li6OsN4,64.00662068547872
mp-10759,GeSe,44.619823725180765
mp-1224,HgO,9.718814493083347
mp-13314,ScTlTe2,19.929679664233905
mp-4822,Y(SiPd)2,52.633112408208895
mp-640189,TiNi,38.15243683967343
mp-754628,WN2,25.579832871948327
mp-3208,ZrGeTe,44.37945986912502
mp-2489,UC,36.045117215307606
mp-865342,Zn3Rh,46.0
mp-34023,Ba2NbO,49.83048885967136
mp-556,ZrNi,34.994268173416074
mp-866298,BaNaScSi2O7,44.955383656352865
mp-3927,CaAsAu,26.0
mp-30741,PaIr3,128.0
mp-998982,Ti3Sn,55.0
mp-2589,MgO2,84.67690301916491
mp-21418,MnSnPt,25.95983931107184
mp-676290,RbHS,15.331604880513193
mp-23425,Cs2PbCl6,4.450174085196848
mp-30778,Mg5Rh2,32.16177912787893
mp-555280,ZnS,32.87719676996845
mp-569406,TmZn2,41.0
mp-558781,ScTaO4,72.15283457940095
mp-23268,NaI,8.46536611980883
mp-607475,Zr4In5Co2,53.00270132437601
mp-2339,Ti3Pt,57.788587161931495
mp-20363,LiGa2Pt,25.518398778011502
mp-570691,Ti3Sn,40.0
mp-696497,Mg3Si4(HO6)2,24.65171355682557
mp-20605,PbC2(SN)2,11.708312720334947
mp-961646,TiTeOs,58.0
mp-2090,FeCo,90.71880830523651
mp-1627,Mo2S3,61.25693763772854
mp-554278,TiO2,60.87672719877895
mp-777219,LiVF4,25.0
mp-4064,Ca(NiP)2,74.08602049059286
mp-690535,Na(WO3)2,104.40622661337677
mp-570150,CaAlSi,39.46127155916976
mp-570229,ThBr4,9.0
mp-768032,VOF,55.209433618888376
mp-2839,CeC2,33.57757025345352
mp-567772,Na,21.356909736971073
mp-1025500,ZnCu2SnS4,29.075920362817698
mp-15964,Hf3Sb,48.75744433990818
mp-567889,TiGe2,83.25439554578324
mp-569484,Cs3Ti2Cl9,4.747883824537975
mp-13203,ScCuSn,55.0
mp-971911,ZnN,25.473855771696318
mp-755021,ReO3,124.0
mp-9718,Rb3BAs2,6.0
mp-30183,ZrAl5Ni2,83.55225131857246
mp-14983,Si4P4Ru,86.41462535092987
mp-866134,VFe3,90.12363358247431
mp-703260,PbWO4,22.253368373538883
mp-715482,MoO2,37.90054814170786
mp-862486,Sc2AlOs,46.22143864206117
mp-780539,LiVF4,33.253613417810946
mp-7432,Sr(CdSb)2,18.85947378754712
mp-19025,LaMnO3,84.48389990362584
mp-13126,ZrN,76.14050045681763
mp-22232,TlInSe2,10.944513088159884
mp-2606,BaPd5,40.11427082092783
mp-553991,Ti(GaO2)4,70.21812747732454
mp-33107,SF4,2.4260974444419205
mp-972945,HoErAg2,32.0
mp-3833,Mg(AlSi)2,32.73688562372335
mp-984873,Al3Fe,53.10426446420554
mp-561412,CaCO3,28.590388823688702
mp-437,MgAu,30.0
mp-19241,BaNiO3,23.84979997954896
mp-756473,WSCl4,2.6065095418646935
mp-950995,Li6PS5I,13.424826873198054
mp-867828,BeNbRu2,71.34996030313232
mp-1959,PuO2,76.051257644244
mp-865531,TiMn2Al,84.62733867513765
mp-569662,V2NiSe4,11.909947614780915
mp-2741,CaF2,38.43774573820888
mp-1873,ZnF2,35.0
mp-12086,Cu3Pt,51.78512073986887
mp-546079,MgCO3,25.543833418105226
mp-754672,TiO2,23.961853860414713
mp-20689,Nb3B2,168.00736579891998
mp-9744,BaAsPd,25.0
mp-11385,YFe5,67.78977753868804
mp-1921,ThTe,51.0
mp-714961,Ni3O4,78.25124299583487
mp-1029791,MgSnN2,61.09482409809734
mp-2469,CdS,17.281338533718376
mp-5915,TlNO3,7.0
mp-866183,Ti2ZnRe,62.32218708678706
mp-1027890,Mo2SeS3,13.536279048643205
mp-1011695,Cs2Se,4.906267089551903
mp-7892,Mn2AlB2,157.6319383244413
mp-1787,NdMg3,4.038469691911203
mp-20050,InP3,22.816347578175105
mp-1022726,Ba2CuH6,23.040767897846088
mp-622209,Al3Ni,65.77569518446066
mp-867846,TaTiRe2,117.43893732913105
mp-754531,Al2O3,57.606342514466064
mp-632250,H2,0.00939186137612228
mp-1264,CdAu3,15.19305763581139
mp-22036,ZrSbPd,36.066098844724685
mp-540098,Li2FeP2O7,24.325705682665976