mpid,formula,shear modulus
mvc-3769,YMoO3,37.015741886011625
mp-546125,ScAsO4,66.69336042781818
mp-10890,LiAl3,44.0
mp-136,Fe,184.50833463831586
mp-28391,SiCl4,0.02846352276746112
mp-865166,HfPd5,69.81042058238812
mp-30472,Ca2GaCu2,24.303702264222487
mp-866186,Ti3Zn,54.11809468160692
mp-1029799,Sr4TiN4,33.01996756062901
mp-22646,InPd2,33.38620367650178
mp-13094,YAl2Ni,57.197005689286975
mp-430,TiO2,84.66138123661493
mp-561480,NaNiF3,36.23442514608095
mp-865603,Y2IrRh,46.95244872139858
mp-11947,LiAlAg2,26.835144769912056
mp-29658,ZrNiH3,65.55487252334615
mp-540231,Li2FeP2O7,20.756770735708574
mp-19761,LaGe2,20.41369887795982
mp-679,Er2O3,67.3915874052887
mp-782,Te2Pd,21.81126494255561
mp-1866,KO2,9.984892167535367
mp-10200,ZrBeSi,116.14186623395979
mp-3854,Y(MnSi)2,76.37927145053405
mp-865517,YZnRh2,41.0
mp-1486,ZnNi,12.0
mp-984352,Al2CoOs,108.60188144833435
mp-949028,Sn,17.42706119704129
mp-569815,Si2Ru,108.0
mp-619032,PbCN2,3.9076084433657297
mp-1594,Ni2Ge,44.0
mp-252,BeTe,40.20454417500561
mp-7142,OsC,73.80445550223479
mp-971669,FeSb3,44.36079345370258
mp-9631,AlAgO2,60.13985899473977
mp-23487,KIO3,13.0
mp-19097,FeBO3,92.5481401181847
mp-985287,AgAu3,22.7944944162458
mp-865870,LiZr2Os,50.11419996233911
mp-770602,TiVO3,74.46449359181976
mp-864670,Ta2VOs,97.0
mp-9948,V5Te4,30.32134207601025
mp-30347,ScInAg2,16.098982881964055
mp-13583,Sc2Si2Ru,68.8545309433768
mp-16334,Fe3PdN,85.45882316011897
mp-772099,Cd(CuO2)2,47.66348639197214
mp-22072,YbF3,118.50912414775236
mp-1008677,TiO2,84.0
mp-20944,Sr2PbO4,44.45088606604735
mp-30722,ScHg3,20.189846680484408
mp-561511,FeAsS,116.94332293721462
mp-761568,Rb2CoO3,24.523371428221232
mp-27579,Na4P2O7,23.631934336661487
mp-550433,BeZnO2,82.70744358559469
mp-23475,Rb2PbCl6,5.0
mp-865871,Li2ZnAu,5.0
mp-22912,NpBi,23.0
mp-5186,ScNiSn,37.2713848544569
mp-9743,SrAsPd,27.05234844306563
mp-865863,Li2TlPd,14.484802308535494
mp-866166,Y2PdRu,38.656348007420966
mp-23431,CsCu2I3,4.639531853760404
mp-999540,MnSe,13.346627719535238
mp-15297,Hf6NiSb2,70.63932795294303
mp-19142,Mn2V2O7,32.446719439375485
mp-20987,YZnSn,43.070852221567755
mp-561894,Ba2CoMoO6,63.76776743389617
mp-976408,Li3Ag,6.0
mp-22390,SrRuO3,70.43352783445151
mp-1014244,ZrZnN2,79.0
mp-1672,CaS,39.222497309976966
mp-27838,Na3Bi,10.363234848086812
mp-643409,Ba4Y(CuO3)3,51.024237693227136
mp-1749,CaAl4,27.838549965168554
mp-865130,Hf2MoRh,77.76640063160508
mp-945184,YCuTe2,21.078051353265646
mp-570698,V3Au,40.561498315739385
mp-631429,ZrCrFe,46.77164061293549
mp-1018679,DyTe2,25.0
mp-1017447,HgGeO3,63.82321714135931
mp-19443,WO3,100.70378166776985
mp-6812,KBaPO4,26.12121865983779
mp-1008929,FeN,90.01978322419576
mp-22683,CeCuSn,47.0
mp-21318,PtPb2,15.681906386695195
mp-570409,PrAl3,54.0
mp-11387,HfGa3,70.73646807005028
mp-30566,Ti2Co,17.0
mp-2039,ScMn2,38.25789868773279
mp-20309,EuPb3,12.0
mp-864997,LiSiPd2,36.573513179568
mp-570538,NaN3,14.0
mp-867262,ScTc3,90.69111133422658
mp-761390,TaFeO4,95.70890281896307
mp-30875,Ti2Sn,60.121188051029904
mp-547271,ReO3,124.4084664653776
mp-12910,GeS,14.71149248213038
mp-570050,Yb2Sn,26.0
mp-8639,Ru,186.0
mp-16421,Zr2CuSb3,44.81924344179098
mp-775001,V3FeO8,11.981298850901911
mp-776150,ScAgO3,47.08060208093843
mp-4316,Sr(NiAs)2,27.026825742576627
mp-1008506,BaGaSiH,36.946566112464645
mp-866087,MgSiRh2,77.75047261749452
mp-752463,NbNO,60.0
mp-864909,HfAlRu2,80.06407904150805
mp-2234,Er2S3,32.63713266588341
mp-11470,Hg2Pt,26.542484275668212
mp-4836,Yb(MnSb)2,16.686580850568802
mp-773331,Li3MnO3,33.835368467666235
mp-9223,ScGeRu,83.48278253280517
mp-530399,LiAl5O8,120.93820948932724
mp-3813,Ba2ZrS4,28.0
mp-862376,Sc2CuTc,48.0
mp-23714,SrH2,24.334994185063238
mp-30500,TiCd,19.0
mp-24082,Ta2H,65.75113428018449
mp-753629,Zr2O,77.55428802601784
mp-540957,Cs2TeI6,3.984515027900055
mp-10167,Na3SbS4,2.7583079464788685
mp-2730,HgTe,11.912332506108134
mp-3196,NdGaO3,76.13881091854681
mp-1569,Be2C,230.95449804132653
mp-675880,Cu2SnTe3,19.52058423241326
mp-1029784,Rb2CN2,9.827323194056754
mp-4472,BMo2C,183.0065604571573
mp-4662,ScOF,44.90191249979175
mp-546973,SrSnO3,89.0
mp-14116,CuRhO2,44.687706873313076
mp-9583,K2ZnF4,21.0
mp-9574,NaBeSb,24.0873564225063
mp-30850,TaPt3,90.02289446692731
mp-31169,ScAlAg2,25.0
mp-7250,Nb6Co7,94.74231179695214
mp-12699,Ca3Au4,17.056893118355394
mp-22580,ZrGaNi2,31.0
mp-866376,TiMn2Ge,88.168444826523
mp-8732,Ta2Se,25.85896301584333
mp-862700,AlVOs2,139.92024720085968
mp-10182,LiZnP,51.0
mp-30587,MgInCu4,23.62595269173933
mp-866650,La2Si4CN6,69.6378291062571
mp-12079,K(CoS)2,30.75557009890175
mp-24237,ScH2,62.53909293260389
mp-30851,Ti3Pt5,72.5481166922088
mp-11687,VTe2,17.361329236894953
mp-903,ZrCr2,55.950219380027704
mp-2746,MoC,143.89161944199094
mp-1020011,Li14P2(N2O)3,70.0
mp-10343,Sc2BC2,70.69012757296241
mp-5869,Ca2CuO3,61.318471130576675
mp-9810,TlFeSe2,6.64463200865246
mp-3881,BaZnF4,23.201243123248712
mp-23562,KIO4,10.88403949023497
mp-754567,NaCdO2,29.71650223613183
mp-20565,MnCoGe,61.0
mp-30441,Be17Nb2,152.0
mp-11269,BaSn3Pd,25.020611919872323
mp-865798,GaCu3,46.544368285970236
mp-549,ScSb,34.70907388264548
mp-2128,Sn4Pd,22.927419333886828
mp-7434,NaCuTe,14.363406041762884
mp-10270,ScCo3C,98.77120570131832
mp-978279,Mg3Cu,26.46586438725211
mp-13109,SrHfO3,89.11952215470998
mp-23221,PrBr3,13.39186003872723
mp-1156,GaSb,29.946262547510987
mp-865747,Y2MgGe2,54.92361514236654