mpid,formula,bulk modulus
mp-1029730,Ca4HfN4,88.39563996003551
mp-999072,Ti2AlZn,96.42002927862448
mp-765135,WOF4,12.996450345767741
mp-7804,HfCo3B2,254.56408313009442
mp-19679,Y2Mo2O7,177.0
mp-867127,ScCdAg2,79.4492849623417
mp-613989,Pu,203.0
mp-3398,Ho2Ni2Pb,68.0
mp-754126,CuAuO2,143.11490951518954
mp-11481,MoIr,310.15908550914764
mp-256,LaN,121.85584744802007
mp-864934,MgAg3,78.1047252896436
mp-561800,KCrO2,111.2688856019778
mp-4878,ZrGeSe,102.38754337196258
mp-5798,Al6C3N2,164.69112514009078
mp-2128,Sn4Pd,56.4343491777104
mp-28282,RbTiCl3,17.239441794370833
mp-1043,HfV2,144.86654960573
mp-581833,RbN3,17.195159607063818
mp-23002,TiBrO,14.833161412054727
mp-13446,Co2P,224.7272061999838
mp-850247,Na2CoO3,33.32895089288745
mp-764309,VOF,45.50520438026764
mp-1933,Cu3N,115.70790603003442
mp-6997,Sb2Te,32.33671181219822
mp-569458,AlV4C3,219.0451736258318
mp-985825,Al3Cu,93.50390432117493
mp-9960,Y3TlC,75.10918770248318
mp-20581,Ca3In,24.996758379209197
mp-850275,Li3SbS4,10.752607384166827
mp-11700,BaCuSb,44.900489190603075
mp-19260,Li2WO4,68.88642139448278
mp-25008,Ca2Mn2O5,107.32007833607685
mp-766217,Sr4Cu2O7,95.3384473299245
mp-1029932,LiVN2,80.34737049234455
mp-19035,BaFeO3,116.12301842832441
mp-571039,CaAlPd,61.80497327565357
mp-578619,NaNiO2,96.0
mp-21040,Zr2Fe3Ge,157.82131404913108
mp-576,B13C2,222.38536381920943
mp-20901,NiSe2,77.15614822262387
mp-541,Ta3Sb,185.2386358350573
mp-866162,YMgAg2,62.97164651320514
mp-306,B2O3,33.17768630303066
mp-9953,HfP,148.47630869353017
mp-1057868,PuBi,44.0
mp-10311,ZrVGe,146.0
mp-1008556,AlGaN2,184.15948591302447
mp-1602,SiS2,5.518721277787229
mp-3637,YOF,131.42314360697185
mp-861930,LiPdAu2,100.32395741483148
mp-571594,K3AgSn3Se8,14.900180293072989
mp-541989,Na2CN2,40.830000077228156
mp-862264,Sc2ZnTc,104.94500803473291
mp-570751,Nb3Te,168.99109924635297
mp-9664,K3BP2,17.934823577705032
mp-697111,H2O,16.065733448219447
mp-9571,Ca(ZnAs)2,57.47084964722178
mvc-5517,Zn(AgO2)2,63.54803241079932
mp-38194,YOF,141.7904492432067
mp-11209,AlAs,83.11900124972419
mp-552454,SrTaNO2,176.85203904545781
mp-861910,Sc3Hg,65.59892386838499
mp-29026,MnWN2,288.4189675259079
mp-1682,ZrAs,117.97373227385911
mp-13051,Sr2Si,31.0
mp-3587,Sc(SiNi)2,149.0
mp-771123,ScFeO3,171.21647445294485
mp-864617,NdI3,2.7681434203261266
mp-31625,Cr2ReO6,203.0
mp-755877,BaNdO3,78.0
mp-10671,Sr3(AlGe)2,40.58625180338645
mp-864598,LiMg2Ag,45.71491918022974
mp-4989,CrNiAs,128.86290580715954
mp-980021,Yb3Os,48.0
mp-865506,VSiOs2,277.54459058711655
mp-8231,ZrSO,168.2000134925836
mp-3589,BPO4,60.337538750751435
mp-30066,Sb7Pd20,140.0
mp-571335,ThBi2,66.0
mp-570196,Zr5Sb4,106.32173790599713
mp-12109,ZrRe2,251.42709705049614
mp-754084,Cu2OF2,26.493867736268285
mp-971960,Zn3Os,152.7973859053129
mp-643265,ReF7,6.235477622968547
mp-504711,CoCuO2,208.0
mvc-16291,TiZn(BiO3)2,83.2797401495857
mp-1883,SnTe,39.548342706369645
mp-972748,Si3W,144.8843292958456
mp-776485,NbV3O8,153.32114032154044
mp-545820,SnO,33.81093916054746
mp-865901,BeCo2Si,227.10765383471272
mp-1025497,AlV2C,170.74464576620952
mp-754960,SmIO,11.0
mp-1029771,Ca2ReN3,60.0
mp-1395,VRu,252.46379523552025
mp-22867,RbBr,13.792487257245345
mp-401,Sc2S3,55.90322289885452
mp-10497,SrC2,45.674183800365114
mp-10182,LiZnP,65.0
mp-9473,Ba(NiP)2,74.93904733659153
mp-580886,ZrIN,22.015149562179488
mp-10402,TiTl2F6,25.19487615417809
mp-570198,Ba(ZnAs)2,48.39607720703746
mp-30953,GaBr3,1.6905112590806206
mp-493,Co2B,246.73248962080868
mp-1029878,SrMnN2,92.26191695763241
mp-4429,CaSiO3,92.53968947711286
mp-754358,ZnSeO4,58.27602604442743
mp-13095,YAlNi,92.06920521064251
mp-865162,MgGeRh2,161.2404507915419
mp-4300,Yb2Si2O7,91.64506599631257
mp-5475,NaTaN2,136.0
mp-636320,TiGaFe2,189.69557035752015
mp-11019,GaCuO2,150.61935573902025
mp-2142,Te2Os,129.41309591618014
mp-21248,NbSiIr,244.47062343374145
mp-754478,HfZrO4,204.58468079172317
mp-865497,V2ReOs,290.7931964034988
mp-16053,CuSiO3,27.365148540284718
mp-753459,Nb3O7F,213.5427069227158
mp-561203,F2,4.517990560961056
mp-983359,GaSi3,85.54887455485509
mp-2743,LiPd,72.77562809219211
mp-555934,VF2,92.98001158699611
mp-149,Si,83.01128367335741
mp-282,TiF2,109.21368359734421
mp-19833,InAgS2,52.199296432161894
mp-1025134,HoCu4Pd,127.0
mp-971950,Zn3Sn,51.53532515438931
mp-862424,Sc2TcNi,117.75715683503552
mp-22619,NiP2,144.56146298646377
mp-11230,Y2Al,54.618769394597074
mp-743,RbN3,17.15443343177359
mp-21012,Si3Rh5,198.72308286906411
mp-3498,HfGaNi2,164.5823844437938
mp-981382,MgHg5,24.559977952283692
mp-867308,InCuPd2,128.28186005252638
mp-1029566,CsOsN2,111.24531448468369
mp-4678,Zr2AlN,141.82857153796263
mp-864952,Mg3Ag,47.8482733168856
mp-345,HfB,174.781247075483
mp-189,SiRu,204.0
mp-1029506,CaSiN2,112.84699880903077
mp-765182,Li3VF7,34.44857771596265
mp-443,CaAu2,66.56092850096904
mp-976261,NaCa2In,7.0
mp-20826,CuTe,14.78905992037194
mp-31219,Si3W5,267.1357439884306
mp-864954,MgMoN2,246.3971645104652
mp-3522,MgCuSb,67.61028836472525
mp-30768,Li7Sn3,30.532298973006945
mp-769785,ScVO3,180.74397229520562
mp-1062370,PuO2,191.0
mp-451,ZrB,158.25075793173994
mvc-10896,Ti2AlO4,207.93751802839816
mp-865493,VI3,6.0
mp-6985,Ti,107.11163770530204
mp-20211,Mn3Si,206.2538164868724
mp-1018783,LiBeB,55.27380185246892
mp-762800,Li4VF7,48.505205245890075
mp-22191,HfFeGe,197.49280252271527
mp-571343,Cs(CoSe)2,41.0
mp-430,TiO2,151.61745237000284
mp-29900,NiGe2,109.0
mp-766917,LiVF6,26.85322872347207
mp-30428,BaCu,18.33497180350989
mp-9588,LiP,41.0
mp-866140,TiGaPd2,164.36718679950843
mp-985583,Li3PS4,21.466189040415326
mp-2231,SnS,24.0
mp-1542,YB2,163.6841934235114
mp-58,K,3.7222720674307417
mp-24955,Sr4Fe4O11,128.15230081115226
mp-755318,ScHO2,156.6057146712994
mp-2454,TiFe2,146.63249589742315
mp-795,LiSi,52.04382773468545
mp-11327,Rb2Se,13.89656231569252
mp-28174,Pd(SCl3)2,3.5906793418411542
mp-570081,CuI,8.930721285979377
mp-20541,V2P,207.41311100438324
mp-30954,GaI3,0.8691137161221475
mp-19384,Ni(AsO3)2,147.62846314373812
mp-861946,Er2MgAl,58.0
mp-13725,Li3PO4,70.24959741844924
mp-777801,LiFeF4,32.021373299691376
mp-10849,AsPdSe,93.7064542221702
mp-23189,BI3,1.3794691848105642
mp-570460,LaCo5,130.8828230996904
mp-2237,TeO2,144.7262310104628
mp-8843,SrSiPd,68.39111151818955
mp-569265,Mg3Pt,70.78226445790673
mp-753098,LiCuF2,54.80803439701342
mp-622570,Ti2Cu3,133.111216476947
mp-570673,ScNi5,158.69653468668463
mp-2247,AgN3,15.77173994676107
mp-747,BaPt2,103.0
mp-1105,BaO2,67.0
mp-973983,NiPd3,172.8491655772221
mp-188,AlPt3,225.2304609427992
mp-866160,Y2AgIr,97.56305917398657
mp-545467,Li3(CuO2)2,51.094181752733476
mp-14019,NiB,259.3292596210629
mp-4475,Tl(CoSe)2,46.916508142938774
mp-7876,Ba(MgGe)2,43.2080521551361
mp-12564,LiSbAu,55.44712084716484
mp-865985,CdPd3,137.02324675694263
mp-546011,YZnAsO,75.0
mp-30427,BaZnBi2,31.800751220706786
mp-5443,Nb2SnC,160.08705118566712
mp-30846,Sn3Pt2,101.78141582167831
mp-7225,CeAl2Pt3,143.0
mp-22739,BaFe2S3,50.96264564452668
mp-20741,ReO3,240.0
mp-1349,SrPt2,118.02712567616008
mp-22232,TlInSe2,22.508222638916912
mp-2678,VPt,242.9735323624506
mp-20,Be,124.0
mp-22033,Ti5Sb3,110.91053154351955
mp-593,Al4Cu9,129.36641869308116
mp-864975,Mg2PdPt,109.67464691167228
mp-10165,KAlTe2,16.392772569023805
mvc-14149,CoO2,82.4876369986404
mp-979435,YMg2Sc,45.97613521409521
mp-3666,LiTaO3,123.26804875758492
mp-20711,Fe3Ge,176.82490458022357
mp-763430,Li3MnF6,25.470448896265783
mp-12546,TiCu3,139.58007292316495
mp-1840,TiO2,191.12402114675962
mp-2083,Sn2Ir,110.0
mp-568598,Cu2HgI4,18.236878334776424
mp-18695,Fe15Co,184.15105912007328
mp-541605,Ni(SbO2)2,54.26864432453188
mp-7430,Ca(CdSb)2,38.87139303753477
mp-561258,ZnS,69.64197298734038
mp-22325,P2Pb2O7,46.237262591387434
mp-15988,Li2CuSb,53.29076992134984
mp-753192,Yb4Sb2O,53.54444842352451
mp-10695,ZnS,68.2530652721109
mp-862703,Sc2AgAu,93.0
mp-989695,Cu,141.8910182511984
mp-865966,BeAlIr2,238.0
mp-12177,Te2O5,46.19707375204925
mp-20627,YbGa5Co,64.0
mp-559435,CoF3,94.9274469146502
mp-1029403,RbGe2N3,128.64066905499965
mp-8927,TaCuN2,203.0239587730764
mp-29398,Cs2HfI6,6.833179823627392
mp-555321,BaNiF4,59.1194235596845
mp-11684,SiO2,103.26352652921119
mp-16043,Mg(As2Rh3)2,173.0
mp-864961,Be2PdPt,192.36683251461534
mp-941221,Li(BH)5,16.0
mp-865324,LuCl3,4.9823781471674735
mp-7377,Ba3(AlSn)2,31.024652165115352
mp-9985,NbNiB,239.20495408403625
mp-776827,LiFeF4,45.0
mp-13061,Y2O3,140.0
mp-32450,VBr2O,21.677532509633018
mp-505215,Ba(Cu3As)2,66.86796413182729
mp-27975,NdBr3,9.0
mp-32479,Tl3VO4,15.921127431100727
mp-754150,La3GaO6,113.14017469694643
mp-3241,Sr(CuGe)2,71.14116980562113
mp-771841,Mn3CuO8,40.37807420585252
mp-1961,TiAg,100.50761662677442
mp-8211,GaGeTe,14.351306104645033
mp-766909,LiVF6,18.209084203645887
mp-1008920,Mn2Ge,186.00990715862545
mp-505212,Cs3AuO,7.102085720451868
mp-11873,TlAsPd5,136.269461046125
mp-15621,AlSb,48.893325438836186
mp-981210,Tl3V,102.0
mp-3521,NaBF4,25.787684900842727
mp-11658,Cu2SnSe3,55.057022082936705
mp-11113,TiTeAs,83.1947659786837
mp-11385,YFe5,104.77274148414914
mp-11299,Cd2Hg,37.35120829055168
mp-22204,Co2P,228.4337519665686
mp-605034,K2NiF6,15.99413432719996
mp-8278,Ba(MgP)2,51.047022957674415
mp-4478,CaSiPt,84.15239691641756
mp-982613,Pm2InHg,59.0
mp-8372,CaSi2,59.68307344252333
mp-715008,Mn5O8,136.0
mp-8630,SbIrS,141.08354374892508
mp-5473,CaMgSi,50.30273920551591
mp-9906,Y(Re2Si)2,239.0
mp-11,As,40.232885132979284
mp-703260,PbWO4,67.2611672589814
mvc-12823,MnO2,37.63667998201578
mp-567967,LiGaI4,2.3147016396156346
mp-22156,Hf2InC,129.5381494414267
mp-2008,FeAs2,133.65145920332486
mp-22271,Cu(AsO2)2,19.73687592342545
mp-862702,Sc2AgHg,78.36481443473006
mp-865472,VSiTc2,257.0
mp-25542,LiMnO2,101.17296480965578
mp-20536,CoSn,126.54192003863979
mp-961713,ZrSnPt,130.0
mp-22876,CsI3,5.1560287612559295
mp-24964,SrFeO2,100.59358139874624
mp-756473,WSCl4,0.8891962870320834
mp-7298,Li(CuP)2,90.64732950968876
mp-1025874,MoS2,17.814791249179965
mp-29009,Li2MgBr4,20.67743348870066
mp-977011,H3PbCI3NF3,10.310062831554824
mp-30069,CuNi2Sb,148.6892360273752
mp-570430,TaCo2,222.0
mp-1009488,NiN,259.19805763927127
mp-4636,ScCuO2,135.37330667104794
mp-557373,Cu2WS4,15.515278250705247
mp-11869,HfSnPd,122.0
mp-18740,V2Cd2O7,85.07562369798872
mp-12087,Cu2S,97.08813402794355
mp-10435,Y(AlSi)2,76.96407083231205
mp-22913,CuBr,42.864626964352176
mp-866298,BaNaScSi2O7,87.7336474347085
mp-19210,CoPtO2,178.58552812355046
mp-22700,V3Se4,80.00974868542002
mp-13272,BaAlGe,43.63479690162747
mp-867253,LiZn2Ir,114.11652510068508
mp-866142,TiGaIr2,222.7334844803832
mp-997618,BSb,99.45536559330752
mp-15777,Zn(GaTe2)2,28.306168206535844
mp-765851,LiVF3,45.913492776412745
mp-1017629,MgNiH3,139.0
mp-867347,Al3Tc,144.62001721145393
mp-570553,FeP4,140.58844749283506
mp-3378,SrHfO3,156.73357760055012
mp-13683,HfGe2,112.65903952724028
mp-49,Os,401.32864240497184
mp-315,PbF2,70.0
mp-2352,Na2O,46.0
mp-600124,MnNiSb,109.19242928220508
mp-567747,Co7Mo6,264.0
mp-866146,LiSm2Ir,76.0
mp-4488,Sr(FeAs)2,77.85301701335005
mp-1224,HgO,23.565021467619324
mp-2580,NbB,263.82091693741273
mp-5618,Mg2As2O7,104.48566516044556
mp-6764,BaSi2(NO)2,94.70723103577153
mp-1069,HfSi2,131.91911800544858
mp-30244,Mg2H2O3,51.12563164787543
mp-259,AlMo3,224.92447410257813
mp-765848,Co3TeO8,37.0
mp-774156,NbFeO4,162.0796770566189
mp-1029655,Sr3WN3,56.58046679524854
mp-380,ZnSe,55.671307175110464
mp-614005,VCuO3,38.0
mp-568610,Bi,53.40960180162051
mp-2700,CaSi2,62.560406146180284
mp-12867,SrSnO3,139.41557158159677
mp-865592,Y2ZnRu,86.60181121356474
mp-604908,CoSe,16.273198462838106
mp-4499,MgAlSi,68.20486878285874
mp-554799,VF4,13.715162525049006
mp-12762,PrB6,174.0
mp-7498,Ti5Te4,66.25088231133373
mp-984352,Al2CoOs,200.25505618609725
mp-10967,CdCu2GeSe4,56.85363817606435
mp-23193,KCl,15.825828325826896
mp-866056,AcN,77.41839533477487
mp-866003,ErI3,2.826961828935985
mp-972954,MgCd2,43.07799738002547
mp-30053,NaCN,23.00411665904805
mp-867350,Ca2MgIn,30.443276635238465
mp-30598,SrCuSn2,46.55987668028172
mp-10662,K2CO3,30.0
mp-11345,ZrP,134.38392710311888
mp-865229,Be2NiIr,216.13201580379726
mp-984,BN,102.71724225684306
mp-2250,ZrNi2,163.56307412137517
mp-570454,TaN,237.15267363986771
mp-11358,TaCo3,146.8589033323245
mp-558149,BF3,5.39134887505401
mp-11714,SiC,213.81434089387162
mp-569815,Si2Ru,185.0
mp-866159,YZrRu2,147.43102342558478
mp-19391,NaVO2,114.17252380017432
mp-1652,ZnPd,139.09419386694313
mp-765736,NaNi5O6,152.49355627610475
mp-1595,Nb2O5,138.71859832293347
mp-761474,LiFePO4,57.440989914645975
mp-776216,AlCoO3,76.74056022153266
mp-8098,InGaO3,169.88254324967969
mp-867273,Be2CuIr,189.11401564826264
mp-555434,As2O5,92.66745508112257
mp-23305,EuI2,13.700342490119825
mp-4730,Ga2HgSe4,31.55165640615489
mp-867280,Be2IrPt,240.0
mp-19313,Zn(FeO2)2,163.7429845788235
mp-776532,HfO2,217.0
mp-10437,Ba(CuSe)2,54.0
mp-15987,Hf3(Cu2Si)2,148.10487448275768
mp-18972,Sr2VO4,130.66402095509557
mp-8462,Hf3Al2,115.0
mp-669382,Co,198.992178887328
mp-2090,FeCo,189.17969792095246
mp-975272,Hg,8.279330028826426
mp-641539,Si3N4,254.92926694188716
mp-4079,Sc3AlC,101.73424117407407
mp-561419,V2FeS4,90.43167770827641
mp-1515,ZrSi2,124.68049535927958
mp-9325,Sr3MnN3,52.62484358355718
mp-2345,Dy2O3,142.0
mp-20679,Co3SnC,205.74392374543208
mp-1029921,Ca3Al3N5,112.88904217526822
mp-19069,NiAgO2,126.5357965698486
mvc-11780,MoS2,65.08001326920322
mp-2554,Al3V,120.04406155487743
mp-571279,ZrI2,10.964915987396672
mp-1969,NbSb2,96.97265161416924
mp-1029338,LiV2N3,147.69608146974298
mp-27226,MgCu2O3,93.0
mp-754542,LiVS2,63.915120560545304
mp-977165,Li3Co,14.412321569705265
mp-866279,CaCdPd2,75.65474364804169
mp-30686,Zr2Ga3,110.72866651895329
mp-1029378,Mg2SbN3,114.24388239822487
mp-999498,N2,276.0534720102262
mp-771532,Li(NiO2)2,93.01330309831631
mp-866375,TiFe2Ge,214.5881294353697
mp-1025346,GaAsPd5,144.0
mp-9371,ErF3,72.2411619658872
mp-551918,AlBiO3,128.12140961809013
mp-21848,F2,147.63678328236955
mp-30850,TaPt3,261.53762214175725
mp-91,W,303.93801378610334
mp-20832,Zn(InTe2)2,23.581497637375183
mp-776985,MnV3O8,8.70443507223897
mp-21495,CrFeP,238.1196125583249
mp-867212,TcOs3,377.9061716183263
mp-551741,Zn2P2O7,116.84449117277084
mp-25545,MnO2,87.15417935123298
mp-9570,Ca(CdP)2,56.867365163618004
mp-8352,SiO2,147.03500813210997
mp-567431,ThCl4,24.520959779886518
mp-758933,B8O,204.75117815968773
mp-754531,Al2O3,106.64661495235175
mp-9718,Rb3BAs2,15.0
mp-755066,Al2O3,181.85765716285684
mp-11567,ScZn12,80.88237220074917
mp-752953,ZrTi2O,133.5401137076017
mp-569628,CaCdAu,52.865257192741204
mp-865357,Zn3Pd,112.54567796838128
mp-11537,NbAlRu2,230.51913400131318
mp-568349,Cr(FeSe2)2,68.52216164751991
mp-758052,LiCuF3,76.00203317789807
mp-13119,CdO,93.0
mp-978085,Pr2TlAg,51.0
mp-1006226,ZnBi,38.39409751614912
mp-754363,Ba2HfO4,109.90350234123571
mp-571262,CaRh2,122.6465862798915
mp-534,B13N2,242.81854271541118
mp-21141,Fe2CuGe2,128.90763282167018
mp-252,BeTe,55.06178057767885
mp-11879,BaNiSn3,55.548155189792006
mp-2187,TiSb,89.2681586486588
mp-972945,HoErAg2,69.0
mp-554678,CaGe2O5,116.09329531563507
mp-2677,ScPd3,155.67426249154605
mp-765869,CoAgO2,127.87631575794529
mp-540912,As3Ir,129.5118324989673
mp-810,NiSb,113.66244464081885
mp-30423,VAu2,126.85535084702259
mp-19052,K3VO4,33.56713336124029
mp-997041,NaCuO2,51.0
mp-10614,SrLiP,42.89241879391889
mp-865602,Y2MgAl,54.958089902613885
mp-2210,ZrCu,117.10811754034188
mp-2845,SbPt,124.48825313014973
mp-565994,WO3,193.28042393311938
mp-865716,YbCl2,36.0668930953411
mp-1029826,Li6OsN4,83.66908787783153
mp-754333,TiO,228.4739880100649
mp-21167,Ni2P,193.6677999872728
mp-23267,BeCl2,4.0
mp-867292,Ga2RuRh,222.0
mp-978518,Sm2Ag2O5,127.31121690072376
mp-10635,SnSb,50.13337155969057
mp-978986,Sr(GePd)2,62.0
mp-1025136,EuAl3Cu2,77.0
mp-556646,RbFeF4,48.0
mp-30452,DyNiBi,80.0
mp-13947,Rb2HfF6,21.892361678505907
mp-867357,Tc3Ni,283.5483419506156
mp-571263,KIn9Co2,46.82494604690314
mp-2686,Ca2N,35.0
mp-865707,TiSnRh2,179.92806292295512
mp-7565,SbRu,146.58758484630397
mvc-2125,AlFe4(CuO4)3,180.1538085479379
mp-22390,SrRuO3,166.41283441728643
mp-676518,In3SbTe2,10.0
mp-1018732,HoTe2,59.42390121770626
mp-754850,NaTiS2,51.91615452135682
mp-1186,ZrS2,17.377802538049604
mp-27471,NbPS,135.82277957382018
mp-752843,Li2CuF4,43.22610033442423
mp-865804,TaZnRh2,216.92824893143072
mp-555506,ZrCrF6,74.42442281202996
mp-864889,ZrZn3,100.40905981271328
mp-21336,TaFeP,264.0
mp-675464,CdIn2O4,131.4682646512582
mp-8306,Ba3FeN3,32.73930825182242
mp-867263,ScCdHg2,66.7707403053389
mp-571555,InCl,9.298670726256749
mp-631,TiC,252.64467183325303
mp-27828,Cs2TiCl6,8.77051547185394
mp-864890,Hf2FeIr,187.83598703197788
mp-773929,CrCuO2,153.3015941763075
mp-971662,Si,76.02794086434395
mp-21328,HfSn,102.11565156791559
mp-776184,V3NiO8,145.04040863791573
mp-1782,ScSe,80.51432054547186
mp-11328,P2W,188.09355014013263
mp-30500,TiCd,81.0
mp-5504,BaCO3,50.42916569006796
mp-4563,Ti3TlC,145.7318275209206
mp-9987,Nb2PC,223.55794439869842
mp-9935,GeSb,36.0
mp-1356,Sb2Pd,84.4596244480988
mp-20001,SrSnPt,69.56550895738029
mp-5166,Ca(AsPd)2,87.01007818638905
mp-11520,YNiSb,93.99898738655165
mp-5106,TbCoC2,168.0
mp-1327,NdMg,38.09733301996019
mp-3889,NaBO2,45.817221532492866
mp-2760,Nb6C5,238.860830260856
mp-779689,H3N,8.375363933625113
mp-23317,AsBr3,1.2986328513469776
mp-1029490,Sr3B3N5,69.0
mp-1909,LaMg2,36.35810300628728
mp-13542,ZrGeTe4,13.0
mp-30840,Ti2Pd3,157.0
mp-25092,Ni2As2O7,114.97406748216332
mp-865795,LiSc2Ru,87.89557904206833
mp-866143,TiBeRh2,203.64588851966909
mp-1008835,OsC2,358.5628797737944
mp-2157,Co3W,279.2945278634349
mp-865191,FeGeRu2,227.23569471642017
mp-561589,Sr2Fe2O5,114.68300203081634
mp-601842,Fe9Co7,190.37169053354663
mp-30444,Be22W,133.329197541947
mp-569526,RbCuCl3,16.35023031219307
mp-20683,Cu3Se2,74.44733318413265
mp-10721,Ti2C,138.9378923332192
mp-55,Sn,48.0
mp-864624,HoZnRh2,132.0
mp-1773,ReB2,337.47653937194406
mp-571599,Ba(BiPd)2,59.94266739775007
mp-5165,Th(SiRu)2,164.0
mp-27834,Tl2PtCl6,11.0
mp-1007907,ErTlTe2,29.0
mp-1018063,ErH3,98.88725140121386
mp-1002206,SiC,240.9306997249511
mp-3582,Mg(BC)2,157.97894470289947
mp-561412,CaCO3,75.01064417115461
mp-766953,LiVF4,47.0
mp-642644,V2H,191.0
mp-999126,NaTbS2,43.0
mp-11453,HfPd3,178.51667442088856
mp-30485,Ca3Zn,22.131185271196976
mp-3103,Nb4AlC3,215.5892488933839
mp-567397,W2C,335.7985137172578
mp-23562,KIO4,20.15923548987837
mp-1013524,Ca3N2,74.0
mp-866218,Ti2MnRh,189.7642702639613
mp-10076,Hf3(NiGe)4,159.7138430483233
mp-673635,Fe3N,199.61060690209075
mp-390,TiO2,179.32150795084422
mp-561664,TeF4,11.005927395984148
mp-14091,AlAgSe2,51.88467087120542
mp-862712,Sc2CoIr,142.73015904285268
mp-775089,Li9(CoO4)2,70.70142719765856
mp-556424,RbVF3,65.0
mp-3834,BaZrO3,148.8673335545741
mp-20840,MnCo2Sn,169.1111802836611
mp-776264,LiFeF4,38.0
mp-690470,NbCrO4,201.8585145957473
mp-3938,ZrSiS,124.57925807372476
mp-867274,Be2CoIr,218.41776030679142
mp-22701,ScFeSi,139.43293825091
mp-557291,BaCoF4,56.29271161990966
mp-556093,CuMoF6,34.472262492876204
mp-997042,TlCuO2,17.065849564714664
mp-23295,RbCl,15.0
mp-1017,Zr3O,133.96788635842864
mp-1009833,TaN,243.47299763383702
mp-4867,CaAl4O7,114.36718396072115
mp-861499,Pr2CuIr,82.0
mp-570001,Al6Fe,106.0
mp-850131,NiS2,26.766458585887214
mp-560203,SiO2,54.9264546452405
mp-558852,FeF3,104.0
mp-3830,NiAsS,109.013702011532
mp-9565,Ca(MgSb)2,39.0
mp-1601,TaRu,252.4028754884431
mp-866188,TlCdRh2,138.24133483031449
mp-569289,Hg,8.500235513389603
mp-9942,Ti2FeS4,61.19013947562032
mp-29615,Ca(MnBi)2,32.58142471931509
mp-867250,LiZn2Pd,87.27384533986204
mp-756214,YAlO3,191.4821773358263
mp-21235,Mn2VGa,186.65258115246482
mp-7396,Li3Tl,37.0
mp-8097,SiP,53.423689744909275
mp-27930,Li7Si2,32.58788097320955
mp-32449,VH2O3,75.01778667070965
mp-753490,TiCuGe,132.38424906644752
mp-27891,Bi2SO2,44.34627919031817
mp-12549,BaAl9Ni2,78.6067433030897
mp-8401,CsMgF3,63.6287573484095
mp-30481,CaPt5,166.40402675574236
mp-570506,ZrI2,9.071385201914842
mp-11229,YAl,64.87707147795922
mp-22880,FeBr2,10.144002305931194
mp-4163,Ca3Ti2O7,129.81187052647013
mp-865473,VBr3,6.0
mvc-916,BaMgV4O8,102.53807481691128
mp-30800,NdZn2,61.0
mp-11276,BeRh,206.5838196640816
mp-1954,P3N5,131.1795544670033
mp-2698,YCu2,79.99769658960572
mp-976265,Hf2OsPd,178.0