mpid,formula,bulk modulus
mp-9880,YB2C,177.14394849235282
mp-15779,Mg2SiNi3,126.9595944855101
mp-771796,Mn3CuO8,84.97540779802308
mp-12951,ZrGaAu,124.52868010572693
mp-862543,Sc2AlTc,108.06110504647069
mp-22444,Ta4FeP,218.51229584637943
mp-861627,Ti2AlMo,150.07871059344436
mp-962064,NaYSn,4.0
mp-11190,VSi2,174.571680946786
mp-865051,NaCa2Tl,22.0
mp-5126,ZnSO4,68.17318454634398
mp-2012,LiHg,31.45311731218463
mp-23558,Ag2BiO3,99.60153327386507
mp-15805,Mn3ZnN,194.92349238265308
mp-867137,ScVRu2,195.2361999847618
mp-569383,Ca5(CoN2)2,65.31532043027727
mp-865842,Ti2OsRu,231.0
mp-2977,CuAgTe2,16.05627352733034
mp-12956,Yb(FeP3)4,150.39370570043062
mp-960,B2Mo,299.0
mp-168,Si,83.34494985486913
mp-13450,HfSb,101.01118798754324
mp-10752,Er,42.0
mp-9262,Cs2PtF6,15.0
mp-1001011,TaO3,187.84410057522442
mp-865671,Y2ZnIn,61.22162887045144
mp-20278,Fe(BMo)2,197.19379361935097
mp-29502,Al2Te3,5.730428131981316
mp-4438,CaSnO3,143.29238393127162
mp-569685,LiZnP,53.0
mp-998968,TiMo,140.2289840922287
mp-29624,Mg2Al2Se5,14.665118263043663
mp-15837,Nb5Se4,116.0
mp-11286,CaHg,35.02446618075834
mp-5986,BaTiO3,105.52882309012381
mp-16491,SrAl9Co2,83.0
mp-1029422,NbZn2N3,138.98508644618985
mp-1022724,CaC4,143.16986570124863
mp-22965,BiTeI,6.958639009545308
mp-21462,Eu,12.874751997787282
mp-22318,SrAl2,44.766510609549606
mp-2894,ScSnAu,90.0
mp-998552,BaHfO3,159.02154431001915
mp-20856,Eu(FeP3)4,151.15071777985554
mp-867916,ScGaIr2,191.0
mp-685036,Al2O3,145.9384938329946
mp-4198,Ag3PO4,75.40702718574713
mvc-11438,CoSe2,36.93620311929088
mp-866012,Hf2ZnRe,159.78586095150473
mp-568404,Li9Al4,31.0
mp-867872,LiCdAg2,54.0
mp-754375,NaTi2O3,141.5731463417354
mp-39,Tl,26.527686317419825
mp-1842,NbAl3,126.8957257601125
mp-772246,TaVO4,208.65016112916024
mp-22637,HfNbP,178.72481886695599
mp-4343,Sr(MnAs)2,54.25132554092855
mp-8635,Zr,90.1267402629637
mp-17702,Yb2SiO5,80.86346157249659
mp-715262,FeO,119.55759520213213
mp-754246,TiSnO3,26.124510775966076
mp-31531,Li8CoO6,73.18712886434156
mp-20862,CoSe2,106.02524900661032
mp-11329,P2W,189.09236875040574
mp-8628,Te4Pt3,49.25229319890227
mp-13334,ZnSnO3,165.43816299654355
mp-16755,Mg(AlS2)2,18.607067726418922
mp-18316,Mg2Pd,69.0
mp-21090,MnNiGe,130.5938243268268
mp-28945,Si2NiP3,105.03888245190369
mp-861875,LiHf2Re,135.88492080859572
mp-1099,NiGe,135.7993007703318
mp-18814,MnCO3,99.37209652256651
mp-2449,NbRh3,248.87228437835086
mp-1016200,MgGeAs2,52.119625347214345
mp-3349,Sr3Ti2O7,140.22588081169278
mp-4628,ZrSiSe,85.62623297576248
mp-5122,Na3AlP2,28.2996087563166
mp-30587,MgInCu4,97.07506076619995
mp-865866,LiZrPt2,140.0
mp-22916,NaBr,27.0
mp-625397,Nd(HO)3,63.9582383025196
mp-1352,ZrN,247.0
mp-3970,K2TiF6,26.75592201139072
mp-25118,VClO,22.0
mp-1808,Ti2Ni,141.4188745681721
mp-568827,Be12W,144.26034605899304
mp-1569,Be2C,201.088601424628
mp-8132,Li(TiSe2)3,21.892325389844885
mp-1521,Sb7Mo3,107.81800225482813
mp-22167,Zr6Ga2Co,109.0
mp-4651,SrTiO3,168.4715734450354
mp-17701,Sr2NbN3,71.33173551405088
mp-19017,LiFePO4,90.8627654557033
mp-150,Fe,172.97674425379918
mp-865131,Hf2OsRh,202.0
mp-20465,As2Pd,107.097861441063
mp-4822,Y(SiPd)2,132.0724519119962
mp-582360,TaPd3,200.1643640165157
mp-4541,NaCuO2,63.050535543979166
mp-6353,Y2Si4CN6,167.15818761501237
mp-12608,CuPt7,244.792814978294
mp-22626,OsF6,5.739821301828468
mp-489,Ge4Ir,108.54093728793043
mp-862340,Sc2GaCu,85.45231861961648
mp-573321,TePdI2,6.688195364061763
mp-977375,HoBr3,3.800644465466748
mp-22722,NbSiPd,194.8920000245626
mp-1841,SiIr3,299.00182437285014
mp-9569,Ca(ZnP)2,66.9045280220065
mp-864772,LiSc2Au,73.0
mp-3497,FeCuS2,56.07942968246239
mp-1029330,Hf2SeN2,159.0
mp-11504,MnZn3,88.10285835311089
mp-1387,AlV3,159.0
mp-1029756,K3BN2,29.57307501816027
mp-862361,Sc2NiOs,140.67685143632772
mp-10736,Ba3N,12.669975024400294
mp-21316,TaSiIr,258.59935337340903
mp-12585,CrRh3,230.0
mp-867854,Ca2ZnRh,48.81569978033879
mp-570558,Rb2NbCl6,9.584029952976703
mp-867243,Sc2ZnOs,120.80309508102393
mp-19722,MnCu2SnS4,66.0
mp-4955,AlVCo2,192.22448609813011
mp-473,Na3P11,13.424926434519445
mp-13463,FeNiPt2,209.97274783926724
mp-10054,ZrAs,116.1931785676132
mp-927,CuP2,89.26006176683356
mp-555370,V(MoS2)2,94.7124593310494
mp-13314,ScTlTe2,33.782053573530945
mp-8543,Na3AlAs2,23.13339691975668
mp-32994,Hf4N3,224.95202284029224
mp-5862,CrCuS2,94.22276581542431
mp-29400,CsFeCl3,14.012200814780565
mp-680677,Sn3Ru2,127.08035933304096
mp-29674,Al2B2Ru3,229.82468843677367
mp-866073,MgSnRh2,148.80835838000348
mp-22056,YIn2Ni,78.61190570202292
mp-776150,ScAgO3,131.7648400376307
mp-12527,Ti2Te2P,20.67344647204523
mp-1746,MgF2,102.91600920693735
mp-28049,BaBrCl,15.0
mp-1696,CdPd,109.5897153781122
mp-4009,BaPdS2,39.909939820490386
mp-2756,CeAg,33.0
mp-24946,CaFeO2,109.71624305192292
mp-815,GaNi3,179.94290375014472
mp-769647,VOF,146.18714252308942
mp-764839,Na4FeO5,44.50966387249648
mp-1211,ScCd,67.04158082899131
mp-1008557,AlBN2,257.91818120439063
mp-978552,SiRh3,237.2925191729583
mp-416,Cr3Os,282.0
mp-986716,Sr3N2,50.655829369212675
mp-17577,Ca6MnN5,76.59605355974284
mp-554095,NiRhF6,36.538611919043724
mp-32884,Ag2S,25.072494214370337
mp-1011695,Cs2Se,11.686474138685778
mp-771359,Cu2O3,159.26943807835443
mp-3503,Li6WN4,84.67706931532871
mp-27725,AuI,2.4253107154549416
mp-27276,Si12Ni31,198.75721966177
mp-708,LaAs,65.110782954607
mp-739,TiP,138.5426345961132
mp-782681,FeOF,118.29181532673249
mp-1646,Li3Hg,25.84968183817029
mp-23227,CuBr,29.0
mp-21163,SiPt3,198.0
mp-567503,PbI2,4.307422420620538
mp-990448,C,99.81711060012286
mp-866157,TiGaRh2,194.04336899664705
mp-357,SmPd3,123.0
mp-567597,Bi,46.560519098263434
mp-20305,InAs,49.15915091766797
mp-27360,ReBiO4,134.69079837744567
mp-3107,Ga3PO7,150.1214332783293
mp-1005,FeP,212.0
mp-961656,VFeTe,101.0
mp-766862,Li2VF6,60.25200428266719
mp-10208,NiMoP2,189.0
mp-1014168,CsPbBr3,16.789714621633255
mp-569267,Ca2CdSb2,29.785490607200213
mp-5702,Cu3SbS4,68.04023226245354
mp-13948,Cs2HfF6,20.31402428649791
mp-3751,AlTlF4,41.485982929328976
mp-1412,Ti3Sb,119.82237913946214
mp-5318,MnCoSb,114.44214990178492
mp-571166,CaBr2,25.0
mp-23262,Bi2O3,54.48642573645523
mp-3623,MnAlCo2,191.796037740754
mp-2750,Cr2Te3,41.46398141511257
mp-9573,NaBeAs,45.406185230279924
mp-569364,Be22Re,136.65332811040162
mp-19219,Li3VO4,62.97155504349092
mp-570272,Tb2Mg3Ni2,67.0
mp-18778,Zr(WO4)2,92.45471734870961
mp-1509,Sn2S3,16.920249903618327
mp-971857,Zn3C,93.39787100672295
mp-28233,MnCl2,9.034038289891253
mp-7861,CrCuSe2,68.82667075638506
mp-672254,CaPdPb,57.111313659894584
mp-10630,Sb,58.239292623729064
mp-7432,Sr(CdSb)2,36.96995550338959
mp-984050,BiH3,74.0
mp-300,YbPt3,161.0
mp-25036,YbMnO3,164.44121084354043
mp-561183,KCrF6,12.0
mp-984358,Au3O,115.9161704104378
mp-372,VPt3,241.37914214469814
mp-30472,Ca2GaCu2,49.848729863260495
mp-2646,Mg3Sb2,42.20835622602337
mp-753848,Li(CuO)3,84.45582464246199
mp-20987,YZnSn,64.26682203885375
mp-8780,Cr2N,285.039262769158
mp-781777,FeO,123.97174094428196
mp-995214,H6PbCI3N,14.979151823016345
mp-862841,LiPm2Os,73.0
mp-3504,NbNi2Sn,178.41038516647808
mvc-14201,Ca3Sn2O7,128.97710470998857
mp-2676,TaBe2,167.60198718186734
mp-696746,B4C,226.56839039303398
mp-865656,TiMn2W,243.1498273774076
mp-15605,ScSi3Ni2,139.24894739757866
mp-1007770,TlAs,38.51510244177115
mp-4992,ScCrC2,209.409167202672
mp-12559,MnAsPd2,130.4605058617911
mp-1019544,BaZrO3,142.97578873689116
mp-861978,Hf2ReIr,215.70452284057663
mp-771725,LiNi3O4,150.32406878373018
mp-15178,Lu4C7,126.4002349078632
mp-10063,CdSnSb2,36.233285505090365
mp-1215,Ti2O,183.78502832083817
mp-20648,V2C,244.05539896459453
mp-404,MnTe,46.43575245795844
mp-865486,VZnRu2,227.53467722000042
mp-568333,K2SnBr6,7.584356276998731
mp-1216,YbO,128.10306466496192
mp-864920,MgZrAu2,116.83828273463476
mp-1431,MnSi,209.6108960493519
mp-674478,BaCO3,52.55243587903658
mp-644483,Ti3SnH,125.06325290011699
mp-998949,TiPt,192.03257283516842
mp-774155,Li2FeO3,98.85873376294559
mp-24864,CoO,129.36041643640235
mp-867915,ScGaCo2,148.74682097656012
mp-961700,TiCoAs,60.0
mp-1018664,CeO2,131.98286791435382
mp-929,ZrCo2,164.04427654608781
mp-1581,As2O3,9.785550803909512
mp-70,Rb,2.78607881605111
mp-568002,HfI3,4.352280129164772
mp-760539,Li2Ti3O6,107.08134397341806
mp-568880,YInPd2,102.42802730403558
mp-7384,SmF3,112.0
mp-23319,RbVCl3,15.930675077123187
mp-5910,CaCuSb,52.4246189980439
mp-541047,ZrAlPd2,147.49286869274192
mp-4120,CaCuAs,62.90247144413085
mp-11818,BaZnGe,40.0
mp-21096,CaMnSi,44.611722188624846
mp-22400,MnCu2SnSe4,53.60673431087907
mp-5078,SrZnF4,60.78964593690514
mp-1039,MgTe,34.53574329054946
mp-770002,AlCrO4,189.0
mp-973471,KReO3,143.0
mp-862747,Sr2PtAu,46.770631099264094
mp-546790,LaCuTeO,67.05267614605853
mp-27823,SmClO,76.36869055740692
mp-28897,BIrPd,236.0
mp-775831,TiMn2O6,42.38616275777543
mp-4908,Y(CoGe)2,129.0
mp-549720,NbI2O,12.712493739267464
mp-11455,HfPt,184.7918229608325
mp-4998,Sr2IrO4,129.0
mp-4846,MnSbRh,110.68353977488913
mp-20897,Ba4Y2Cu6O13,94.37760538516369
mp-135,Li,14.012876973397635
mp-676861,AlSbO4,197.6583592776416
mp-30091,MgB9N,209.11702116348144
mp-865768,Ti2MnOs,206.0
mvc-15272,Ca2CoN2,70.46219437828212
mp-9778,K2AgP,22.872857803386946
mp-25385,Li(CuO2)2,109.542864602462
mp-24951,YbFeO3,155.09730369018777
mp-30661,ScGaPd2,130.65695160352772
mp-867786,ScNbOs2,226.0
mp-862379,Sc2TcAg,109.1236506359213
mp-7692,Al(CrB)2,227.1089610420454
mp-7251,Ba2YNbO6,134.00500225262925
mp-767367,VOF,163.36303744701146
mp-999390,NbCr3,167.0
mp-769864,Cs2NiO2,20.669262661356424
mp-1018150,NbTe2,18.278937279631304
mp-7162,Sn,43.5593182952347
mp-865495,V2CrTc,237.46881109088025
mp-9768,BaSb2Pd,54.66715005851732
mp-755225,Li8ZrO6,94.34372366318787
mp-772053,ZrMnO3,141.50104681418762
mp-9289,ZrSnTe,81.7614777553766
mp-1539,ZrTe,93.06590970990707
mp-8418,ZrCoP,193.0
mp-15803,Y2MgSe4,51.73031553943827
mp-232,DyRh,115.0
mp-755478,CdBiO3,101.4477186537199
mp-9481,TcS2,26.199449988015672
mp-1014244,ZrZnN2,177.0
mp-569960,ZnBr2,8.046363718635979
mp-1667,Co2Ge,199.90151104889514
mp-862695,Al2CoRu,188.15819456575267
mp-675902,YCuSe2,63.489262401975814
mp-866155,TiAlRu2,209.0
mp-628,Zr2Co,107.25910334146393
mp-1025575,Mo(WSe3)2,15.704286477003796
mp-989579,Rb2LiTlCl6,20.063050530052
mp-643257,K2H4Pd,14.0
mp-11580,TiCrP,204.0
mp-980947,SrCaHg2,30.0
mp-568560,TlBr,18.264636143521688
mp-972965,GdF3,137.53276259514098
mp-7916,HfSiS,135.09267093389371
mp-778411,V2CoO6,58.0
mp-8402,RbMgF3,65.28140972735656
mp-1008912,AgC,131.0
mp-2648,NbS2,12.78814166219298
mp-568747,K(NiSe)2,40.24178115138052
mp-1936,TaAs,175.78700539492226
mp-15901,Li2LaTa2O7,111.96792866226788
mp-570641,SiC,213.5221330216174
mp-581786,Cu3Sn,107.74335490568748
mp-79,Zn,66.66661514966937
mp-28938,Nb3TeCl7,12.91917894301741
mp-982385,Np3S5,73.53870787815194
mp-757031,Mg2TiO4,146.712274130583
mp-996161,Nb3AlC2,202.634280076829
mp-675748,Zn2GeS4,41.6193024699329
mp-763095,FeOF,128.99422095331283
mp-30739,Mg3Ir,77.0
mp-8300,Ba4As2O,37.0
mp-10013,SnS,37.9081914130929
mp-755302,TiNbO4,162.33477371964642
mp-1013713,Ba3BiP,17.0
mp-28376,CuAuF5,28.44548963788668
mp-23263,LaBr3,25.60352657254737
mp-2653,BN,373.24096933529717
mp-1018068,CrFe2Si,241.3508253890881
mp-5671,Sr(CoP)2,84.68476646157055
mp-867270,Be2CoPt,206.711434302658
mp-2839,CeC2,100.96830181299221
mp-5489,LuTaO4,132.0
mp-1029562,Li3InN2,85.58064157643577
mp-4180,Ca2SiO4,95.84272054865556
mp-16514,Al3Ni5,167.18587064192258
mp-545974,AlPO4,121.0
mp-10777,RbCeSe2,30.5452357398642
mp-30315,Ca3BN3,80.91642822092281
mp-8145,RbScO2,95.0
mp-22309,CoSe2,99.19706859505207
mp-865678,TiMn2V,191.580852367403
mp-5515,Li7MnN4,80.37436548071243
mp-568069,Ti2Bi,72.34902042131745
mp-676117,Li2CuGe,59.702739102040574
mp-20801,LiIn2Pd,64.8315212927651
mp-30443,Be17Ru3,153.499137534064
mp-5723,ZrAlNi,138.3532045026832
mp-19896,Li2GePbS4,42.10635642672215
mp-1630,Zr3Hg,104.21131943058964
mp-10894,MnAlRh2,184.448476841888
mp-1982,Al21Pt8,133.0
mp-11342,GaSe,14.0
mp-16334,Fe3PdN,187.480450633182
mp-362,Ni3S2,126.92750586374514
mp-23052,ZrIN,19.266799674280765
mp-864944,MnBe2Pt,168.0729375390856
mp-864626,HoThTc2,120.0
mp-20978,Ho3TlC,43.0
mp-13108,SrHfO3,152.285451959785
mp-697068,SiPd2,179.79053212190274
mp-2291,Si2Ni,150.0
mp-5782,AlAgS2,63.397199096793614
mp-541013,TiI4,2.0
mp-27897,Ba(NO2)2,29.001911217952372
mp-1500,BaS,41.39019080616292
mp-634105,HBr,10.0
mp-972808,SiO2,36.0
mp-777413,CeScO3,155.01051562286767
mp-764634,Li2CoSiO4,84.59692367867366
mp-6945,SiO2,12.870244831199008
mp-753890,Ni2H,196.52482871314373
mp-1056996,VN,225.0
mp-28232,MgTi2O5,161.74600852663843
mp-2490,GaP,76.18684986504738
mp-865485,V2CrOs,265.1665691368661
mp-862706,BeCo2Ge,204.548064528865
mp-1008728,Ni,189.4459929209624
mp-571440,K2CuBr3,14.0
mp-547622,Pm2O3,129.0
mp-5929,Na5SiP3,30.0
mp-861979,Ir2S3,167.60702640802327
mp-31769,Sr(FeO2)2,71.0
mp-30490,Mg3Cd,39.884668713102606
mp-11521,ScNi,110.48564043536993
mp-30656,TiGaNi,147.0
mp-12724,SrZn,24.18770955471393
mp-569849,Li15Si4,29.95293648778788
mp-560530,Nb2Cd2O7,117.45689933674576
mp-631568,AlAgB,102.0
mp-867126,Rb,2.754316500715898
mp-17695,Sc5Sn3,72.0125358340849
mp-23791,B(HO)3,13.238241455384538
mp-8409,KYO2,79.67419625323595
mvc-15350,Ca2Sn3O8,106.97443703751246
mp-2151,Mg17Al12,50.0
mp-570769,CaInCu4,86.93687377619646
mp-1029750,Sr3RuN3,61.58165110704334
mp-865297,Ho2InAg,63.0
mp-23154,Br,4.228235038670185
mp-605,ZrTe5,11.350107473369805
mp-696114,CoCl2,11.0
mp-864896,Zr2CoTc,164.20195925863194
mp-5323,CeAlO3,190.88481656764333
mp-760411,Bi2CO5,99.34386099352508
mp-5104,CaZnF4,68.0
mp-1009127,MgO,142.64467252824772
mp-567313,Te,21.815500053508558
mp-1157,TaNi2,213.87413746496884
mp-1018649,BC5,378.0
mp-23499,K2SnCl6,11.858436675557634
mp-861640,Ti2AlRe,171.83729437140198
mp-862815,LiScAu2,81.86717587026982
mp-25765,CaLaMn2O6,153.27969993640016
mp-2762,YIr2,196.12988568384688
mp-570150,CaAlSi,56.14412279317115
mp-568419,Mg3Ir,75.58844383226115
mp-696497,Mg3Si4(HO6)2,47.52965120436844
mp-864878,ZrAlAu2,134.5736521646653
mp-1799,TaCo2,243.39292528652646
mp-570112,Cr3C2,308.9134033829652
mp-567345,NbRh,218.0
mp-7457,SnF2,14.127004323143575
mp-12678,TaMn2,242.6012186807169
mp-8799,RbNaS,13.0
mp-4264,K2S2O5,19.34482226615715
mp-865665,TiReTc2,273.3638862175095
mp-3207,Sr(NiGe)2,71.7018644777078
mp-11566,ScZn,75.1904306307307
mp-1025151,Cr2NiSe4,75.0
mp-4953,CdGeAs2,51.93082304556236
mp-1008555,AlCu3,128.68420612824087
mp-10046,V2AsC,203.07718491876548
mp-9972,YSi,89.41816126123092
mp-550172,SnO2,171.8739338969503
mp-19963,TiFe2Sn,181.40110193904098
mp-8818,Ca2ZnN2,79.90561919985024
mvc-3224,Sr3Fe2S2O5,78.9820039794697
mp-865152,MgAlPd2,122.76183516244686
mp-4428,CaSiO3,75.48055826159761
mp-567789,InI3,0.9358263168779338
mp-886,Ga2O3,155.3568246858536
mp-17518,Sr2TaN3,68.0
mp-9939,Hf2Ge,132.6987171067843
mp-12521,SrNi3Ge2,89.22669882492909
mp-676828,ZnCuAs,75.41614607912746
mp-7467,RbCuO2,32.48779642566437
mp-862622,BeRu2W,270.0
mp-23250,UCl6,1.0
mp-569157,BiI3,2.9838513488812484
mp-553432,TiO2,14.032549930496625
mp-864902,MgTlRh2,130.64203411588608
mp-17856,Al7CoCu2,109.98492107106064
mp-1025176,HfGa5Ni,91.0
mp-865441,TiAlPd2,165.87556300738316
mp-23037,CsPbCl3,21.293212630000163
mp-18751,Mn2ZnO4,137.33961813730136
mp-971700,ZnAuO3,99.5296642730442
mp-4008,ZnGeAs2,60.613658790630026
mp-28614,NaBPt3,154.76332179578966
mp-879,La3Te4,51.22179391160674
mp-862431,Sc2AgOs,124.32113400907049
mp-8236,Ba(PPd)2,60.812836819870135
mp-933,YAs,75.48744325477364
mp-754711,Nb2Pb2O7,144.74482181568285
mp-559044,CuCSN,46.83527648266016
mp-760432,Cu2O3,92.62132009730864
mp-18971,Mn(PtO2)3,190.43929844504
mp-600862,GdFeO3,126.38316138062244
mp-1018770,Li3PrBi2,37.40620536398204
mp-4471,ScAlO3,206.10500994080482
mp-642659,V2H,192.3630785165026
mp-2856,Mn4Al11,125.41173209669869
mp-865041,HfScRh2,156.78635675890146
mp-675926,LiBH4,6.166568239422423
mp-7822,Sc5Si3,89.09772475657587
mp-14815,TaTe5Pt,20.390165597868677
mp-570835,NiHg4,51.0
mp-10445,Sc6FeTe2,67.7826186061366
mp-23807,AlHO2,154.94836831454631
mp-118,P,1.3846873010710288
mp-12107,TiPt3,237.05709543431374
mp-614444,ZrZn,88.95249937275548
mp-27636,Cs2SnI6,7.134142452337603
mp-1009083,MgSnP2,56.90153294445066
mp-1867,Ta2Ni,215.28171347045762
mp-10196,Ta2N,272.4171242777369
mp-569594,Fe7Mo6,251.0
mp-568671,V5Si3,193.75928027401162
mp-2091,V3B2,255.93277598709903
mp-10289,Ca(BC)2,135.0
mp-23211,PrCl3,33.74024406929688
mp-92,Si,107.56872071504921
mp-11958,CaSn2Pd,60.00737081420304
mp-12104,NbSi2,175.0
mp-765548,LiVF4,94.00011810135805
mp-20181,Ce2C3,116.40011401505336
mp-20098,Ba2PbO4,85.0
mp-3448,KMgF3,64.07587783170399
mp-12906,Sr3CrN3,40.0650446784522
mp-10739,TiPRu,220.810609233176
mp-14549,CuO,177.74276527884084
mp-1029737,Ca4VN4,87.262475475929
mp-4448,Y3AlC,79.64670404288434
mp-9124,LiZnAs,54.738221205061464
mp-24834,H4N2O3,22.002893510659614
mp-1021672,Sr2CuC(NO)2,74.92741110468364
mp-20621,NbInS2,58.19407723790782
mp-20971,SnPt3,200.76621327441217
mp-755646,LiCuO,37.6195927076956
mp-8279,Ba(CdP)2,51.0
mp-11834,CuNiSb2,91.9209015247267
mp-21276,PbS,51.956983881385405
mp-1029375,BaCN2,48.0
mp-761574,CoSnO3,152.33588654518985
mp-16238,Li2AgSb,46.937612885547075
mp-695850,CdCl2,9.191593430921287
mp-4,Nd,33.15240577136485
mp-715553,VO2,97.49968353478948
mp-29209,Ba(MgBi)2,31.508252680591745
mp-21273,FeTe,20.4182484929133
mp-771,MnAl,132.96648954550585
mp-1695,Y2C3,119.62176980183868
mp-866650,La2Si4CN6,55.9571374756271
mp-12103,N2,0.6495014246545268
mp-700,GeSe,21.1166705441022
mp-23560,Ge3(BiO3)4,50.771936333758276
mp-11248,LiAu3,98.80925267935386
mp-38970,Ga2Te3,22.156105752216106
mp-867842,ScInRh2,148.39862384633818
mp-818,SiRh,195.0860409957216
mp-36111,LiMgP,55.12535761878577
mp-754262,Zn2As2O7,103.5674607645458
mp-9556,SrZnSi,49.222806467712346
mp-9948,V5Te4,50.371936429003156
mvc-12022,MnO2,106.01801480750841
mp-22894,AgI,25.10373740285121
mp-22870,InBr,12.5642434506523
mp-754588,ZrBiO4,123.348469519585
mp-1620,Si2W,218.47991738530084
mp-510311,BaZnPb,29.56461603397802
mp-31456,HfSbRu,146.9728833527148
mp-862691,Al2FeCo,181.14489446242
mp-1472,ZrB2,237.9329180242104
mp-29481,Rb2WBr6,14.60777731611655
mp-782719,LiVF4,57.53556494189653
mp-978269,MgZn2,63.30163125487139
mp-1115,PtSe2,17.958563421749368
mp-1688,ErAs,79.44403472775738
mp-23350,Rb2PtCl6,10.971054274100263
mp-7463,Cu3P,123.44585599766823
mp-866194,Li2MgCd,30.17832181173987
mp-12071,Ti3As,125.9109253890548
mp-19178,CoAgO2,128.1095519211003
mp-19870,GaFe3,174.30544049669743
mp-851027,LiFeO2,125.8727739945993
mp-615,YMg,41.077126029546726
mp-775620,CoOF,101.34508641400622
mp-862423,Sc2TcPd,122.27757996034106
mp-866271,LiNiO2,116.04467937364208
mp-567705,TiAl2,108.55986109016695
mp-31458,TiSbRu,140.56026772588316
mp-3164,BaSO4,51.63190105923482
mp-9835,CoSb2,98.29731306200506
mp-21342,V3Sn,162.64155344453175
mp-753195,Li2WS4,6.513499580663733
mp-541487,TlPt2Se3,23.771130140751964
mp-10293,BaC2,39.728855534096745
mp-2065,MnS,55.92382439056861
mp-7930,Zr3(Cu2Si)2,137.71908943654068
mp-8623,K2Te2Pt,22.316816574640146
mp-30842,ZrPd3,168.7553999369898
mp-25001,FePO4,60.04985027187096
mp-485,ZrNi3,170.0
mp-775531,LiMnO2,108.75071734932249
mp-865659,Y2ZnIr,94.15109518322252
mp-23237,BiF3,54.45760145594512
mp-2998,BaTiO3,163.21127950924483
mp-755071,SnO2,140.46998482148277
mp-30886,YZn12,78.74341883932107
mp-328,Zr2Ni,121.8285345856045
mp-569516,HfNi5,169.0
mp-770118,Ba3Ti2O7,86.1279141850613
mp-568867,Si3N4,189.7113038073447
mp-1008374,C,319.97970439271074
mp-17383,Ni2Ge,167.59655559262518
mp-423,GePd2,152.0
mp-625405,V2H3O5,86.0
mp-1016827,MgGeO3,178.0
mp-2507,GaS,16.298971063809038
mp-568121,Mn4Si7,192.91001375858397
mp-560399,NaMgF3,70.41938609201725
mp-554107,K2Na4Ge2O7,46.07984911350922
mp-10924,Mg(Co3P2)2,202.87119587397984
mp-5407,TiAlCo2,177.69702484902112
mp-37906,LiMgN,98.34940057923299
mp-972751,Si3Ge,90.08680585354513
mp-13829,TlCu3S2,43.0
mp-570213,LiMgBi,31.259351373287462
mp-27164,FeP4,138.0
mp-1020,TaRh3,260.2894753817907
mp-1828,ThOs2,213.0
mp-609151,MgWO4,121.7536749382233
mp-976025,Li3Ga,21.0
mp-778409,LiVF4,22.59726802063623
mp-23959,KP(HO2)2,24.0
mp-865218,YbTiO3,179.0
mp-20905,OsS2,193.71804995700003
mp-776881,LiFeF4,57.0