mpid,formula,bulk modulus
mp-580931,MgZn5,62.0
mp-865728,Ti2ReNi,192.46332898348885
mp-33708,Mn(FeO2)2,161.9432025533639
mp-1008280,CrCo3,258.5448710355093
mp-23051,NbSeI,41.23423938266187
mp-30725,YHg2,64.38461207333424
mp-20485,InSe,10.224895107295598
mp-20618,Y2Co3Si5,139.61265285012337
mp-755089,ZrO2,152.0
mp-20716,PbSeO3,35.29275734385921
mp-5388,Zn(SbO2)2,44.2849621077124
mp-23702,LiH2N,25.02617225003957
mp-8606,BaSbPt,57.52235666388442
mp-9274,Rb3Sb2Au3,16.0
mp-1029037,MoW3(SeS3)2,19.83104006538281
mp-773534,TiFeO4,145.84592267884838
mp-644136,Li2H2Pt,46.95393004768551
mp-753746,Rb2O,5.374945445665243
mp-12065,Ag3Pt,120.1913788554748
mp-8547,PdPtF6,35.0
mp-776911,MgO,115.44113006039684
mp-30408,MgAu3,111.00008168724688
mp-7583,SiS2,24.46734813706625
mp-7083,LaSi,66.48015090791623
mp-15619,GaAs,55.86368464213234
mp-643009,SrMgH4,37.84961726618955
mp-11270,MnBe2,163.1600624964465
mp-9922,HfS3,18.45972243741772
mp-15896,Cu2SiSe3,62.762837459794646
mp-625487,Zn(HO)2,45.8594613449967
mp-862445,TaAlOs2,271.90010173755667
mp-4192,Ca3AsN,59.661034877957
mvc-14334,MgVF5,79.62877812632004
mp-976060,Li3C,67.0
mp-2697,SrO2,71.0
mp-10456,HfSiPt,192.14551169121933
mp-640266,Ca3Al2O6,91.92384134162876
mp-769680,HfCrO3,131.7659936389536
mp-705519,Ni15O16,169.0
mp-22856,Bi2S3,21.9408965803812
mp-865076,NaCd2Pt,67.27905614618746
mp-569850,CeBr3,22.0
mp-1029522,Li7SbN4,74.89310345757659
mp-29866,SnCl4,0.7311193957770716
mp-1019509,B2S2O9,28.55752354579257
mp-1029491,CsCoN,39.0
mp-1025191,ScGa5Ni,90.0
mp-622497,V3O5,184.85402103012748
mp-9257,Yb(CdSb)2,40.574848965743286
mp-5670,LiTi2O4,132.11946570837824
mp-754759,Y2O3,138.0
mp-759877,Li4CuF7,53.02838766564173
mp-3909,ZrAlCo2,160.92798277772766
mp-4230,Sc3TlC,97.0
mp-30566,Ti2Co,128.0
mp-567290,LaN,86.33357130850254
mp-8335,Ba2ZrO4,106.2348629723758
mp-763352,V(CO3)2,23.18698728034956
mp-30586,HoInCu2,84.0
mp-20180,Mn3GeC,242.0
mp-643101,Rb2H6Pt,13.657163356628375
mp-14763,Ca3MnN3,87.87299542244625
mp-19276,BaMoO4,55.92695994721731
mp-864844,Zn2RhAu,143.95689101935767
mp-18918,ZnWO4,142.0336868144511
mp-25372,LiCuO2,121.95153609232605
mp-510346,In5Se5Br,27.21296532963035
mp-5305,CuAsS,67.23740206149395
mp-12029,Li2CuP,60.456632416391535
mp-32880,CuBr,48.288381171652404
mp-21236,BaPPt,79.63118131162469
mp-570886,BeI2,2.269321950967359
mp-24,C,387.4998660605709
mp-7857,TiB,207.15786021118296
mp-21017,Y3PbC,76.07371281955453
mp-16336,Zr2Fe3Si,165.00666572549588
mp-996990,BaAgO2,82.14656052678302
mp-865888,TiSnRu2,202.0
mp-9582,Yb(ZnP)2,70.63361600965908
mp-3159,Al2CdSe4,33.0102784714486
mp-984719,BeAg3,99.9151027465889
mp-16524,ScAlPd2,130.5585933891656
mp-865569,Ti2MnIr,212.17463089338813
mp-5924,MgSiO3,190.89259498004543
mp-23177,HgBr,11.52284701379138
mp-505531,FeS,29.76604897533161
mp-24932,FeBiO3,109.10598102886505
mp-22346,BaGe3Pt,75.08821342542947
mp-22052,Zn(InS2)2,66.0
mp-9812,ZnCO3,116.88754446339105
mp-569803,B2W,321.38844578422686
mp-8277,Sr(CdP)2,53.0
mp-715460,CoO,129.42700427067638
mp-985287,AgAu3,122.35523000706768
mp-865537,TiMnCo2,173.05234227432285
mp-1719,PuN,153.9355105679032
mp-973824,LiHg3,33.0
mp-27785,TiBr2,4.0843255967214915
mp-570904,GaNi2,164.2362387769763
mp-1014,ZrMn2,156.91943947158458
mp-571443,SrMgIn3,35.533477889020524
mp-20284,PdF2,79.32672042291728
mp-18105,CsAgSe4,8.613653074313131
mp-560236,MgF2,50.470939404784524
mp-557559,S,1.2340663258895341
mp-10886,Al3Cu2,102.13981156070604
mp-4763,ZnSiP2,84.8541928373518
mvc-4299,Al(SnO2)2,128.20139997601277
mp-864988,Mn2AlCr,194.43882130815263
mp-20565,MnCoGe,162.0
mp-761293,ZrCoO3,153.4054411308839
mp-28364,Rb2CdO2,36.0
mp-19247,ScVO4,147.75267197280058
mp-649774,CuSbPbS3,21.204090883174512
mp-20940,TiCdO3,147.8627752979206
mp-864787,NpCdPt2,63.0
mp-569753,TlCoCl3,18.965992184236782
mp-771811,Mn3CoO8,88.45289340565233
mp-23152,Bi,29.495896266307412
mp-5350,Zn(GaS2)2,44.02883663823718
mp-9549,ScFeGe,101.4933036445462
mp-24860,Co2P2O7,127.82682955084341
mp-756018,BaMgO2,78.81458532594476
mp-2930,Mn3ZnC,192.0847422836863
mp-862261,Sc2ZnRu,108.56190489362156
mp-639789,Fe2Re3,250.6556683230545
mp-569066,Cs2PdI6,5.957448784639475
mp-11350,CaAl9Co2,84.50454066522941
mp-565,Sn2Rh,108.14301953134432
mp-27682,NaSnS2,42.0
mp-2452,P2O5,39.65647916318964
mp-20935,ZrSnIr,159.9100361983626
mp-11959,CaSn2Rh,66.07184186319651
mp-5292,Ca(SiNi)2,104.4064161550892
mp-867812,LiAlNi2,120.40075860381631
mp-30619,Zr3Co,104.0
mp-20724,Mg2Pb,35.427035074425454
mp-20754,LiCeSn2,49.11055661575719
mp-18854,Sr2CrO4,91.0
mp-23183,NdCl3,34.34128013102174
mp-7540,Cu3P,124.55726991420286
mp-8484,ZnO2,144.0
mp-866224,Be2NiPt,196.1857888040714
mp-7426,Ba(ZnP)2,55.395977710198146
mp-1029424,LiTi2N3,125.74220732320127
mp-9921,ZrS3,21.0
mp-864614,LiMg2Pt,71.65218378844095
mp-555229,H5CNO2,14.954380180883081
mp-19079,CoO,236.1509327461436
mp-571193,MnP4,136.73845882538177
mp-54,Co,212.07558268915488
mp-865585,VGeRu2,238.6087754653139
mp-862609,ScReTc2,233.3932947811257
mp-571203,Sr(CoAs)2,71.27508987560968
mp-3716,TbNiSb,58.0
mp-1437,LiCd,34.833695718078424
mp-7376,Sr3(AlSn)2,36.40329564579525
mp-869,TaAl3,132.79149837347856
mp-10025,SiRu2,256.76808075327483
mp-9587,TaMoN,290.0
mp-570684,ZrOs2,264.80771647924234
mp-36891,Br3N,31.11975897422528
mp-973785,PbN,72.04779011865044
mp-9945,CoTe2,84.59588250836464
mp-24659,UH3,107.11295281810999
mp-542090,Na4Al3(SiO4)3,27.863365711556817
mp-756063,RbNbO3,64.0
mp-864835,Hf2CoIr,189.42778258700167
mp-13853,P3Ir,170.40206868821699
mp-21026,Li2InPt,71.88051368069677
mp-865863,Li2TlPd,50.07519247042042
mp-19241,BaNiO3,85.17540590237334
mp-2323,BeCu,142.2296037885819
mp-865113,NaNdAu2,52.0
mp-865382,V3Ru,225.4397224021115
mp-2123,Nb3Au2,172.8999653379284
mp-2039,ScMn2,166.4901022203771
mp-504974,Fe2Mo3O8,140.80852567231943
mp-865193,Co3Pt,212.0221935528629
mp-11819,BaSnHg,29.0
mp-13174,PtN,192.0
mp-567389,Li2ZnGe,42.9366525782572
mp-779985,Li3FeO4,77.88246974682035
mp-558747,TiTlPS5,9.922134029278343
mp-1029776,Li2GeN2,85.28838483926913
mp-997024,CsAuO2,25.62846082805127
mp-22568,V3Ga,168.27451881496802
mp-864938,Mg3Tl,35.534792199825546
mp-862700,AlVOs2,272.5805307097345
mp-741706,V2CuO6,46.283112617022105
mp-973935,OsN2,209.8536885477237
mp-24942,FeBiO3,86.69681235442683
mp-14142,TiZnO3,170.68524121760802
mp-978290,Mg3Os,85.49955058968304
mp-568077,TaFe2,228.47099887150932
mp-11565,YRh5,177.6197133446461
mp-7704,Ca(AlSi)2,61.78167769670683
mvc-15,CrS2,45.75503262185031
mp-12752,Zr4Al3,108.12825944104021
mp-1023923,O2,2.363388183053926
mp-1580,NbN,305.0
mp-894,ZnPt,171.9676020000591
mp-5127,LiCuO,71.56704809411241
mp-10884,AlFeCo2,187.92685090421605
mp-23247,ZrBr3,4.967749798023712
mp-35717,LiDySe2,45.0
mp-11411,ScGa,75.62385782845328
mp-3363,Sc2Ni2Sn,102.32018604644958
mp-9223,ScGeRu,152.27820949145755
mp-23297,BrF3,7.165178517582732
mp-571636,InCl,10.215302395089306
mp-4200,ScPO4,149.53460727001027
mp-8,Re,365.0865043757431
mp-28722,Pt(SCl3)2,2.9345923652164574
mp-867761,Sc2CoRu,131.9220189774215
mp-1029763,ZnSiN2,104.17793038148369
mp-865798,GaCu3,126.84605298222392
mp-675172,TaAlO4,212.32075185093424
mvc-13455,MoN2,167.61384244067256
mp-22514,Mn2Sn,94.96224384712706
mp-8150,Ba(CdSb)2,35.63203429381787
mp-862631,Ba2SbAu,31.43302465223572
mp-862376,Sc2CuTc,112.0
mp-867306,AlCuAu2,129.388163358653
mp-1029726,Li6IrN4,82.0
mp-7130,ScRu3C,233.70181071319854
mp-34,Si,108.76485931270793
mp-4441,Ca(CuGe)2,78.2551582863353
mp-22980,Li2CoCl4,24.95887865162373
mp-9306,Sr2ZnN2,65.92948352560555
mp-761556,MnCoO4,172.6126761382536
mp-7506,Cr5Si3,223.7513564113671
mp-754475,Tm2SeO2,103.0
mp-11649,Ca3SiO,58.0
mp-978917,Sn3B,58.0
mp-568146,Pd(Se3Br)2,3.791260719217288
mp-9986,CsAuO,21.864637853258046
mp-1029610,Ca3CoN3,79.4176216698612
mp-2987,Li2MgTl,28.93239295663968
mp-9177,Y2Al3Si2,86.07109888079464
mp-1014251,HfZnN2,184.51799352583527
mp-754010,ZnCu2O3,92.25317950494636
mp-570744,Si3As4,59.04197593689776
mp-13032,MgS,55.0
mp-8208,Mg(PtO2)3,189.0602179556989
mp-11836,ErSbPd,90.0
mp-997630,ZnO,167.33759431022492
mp-3299,Sr(FeP)2,92.0
mp-754741,ZrO2,109.32403788264295
mp-753657,TiOF,187.9466638709198
mp-644264,Ca4Mg4Fe3H22,61.17083155910826
mp-1597,UO2,200.0065564045069
mp-16290,ZnNi3C,189.9625110506788
mp-862556,ScSiPd2,138.6230880920216
mp-30737,YMgAg,57.56029287377866
mp-557,TeO2,29.5352168242583
mp-8446,K2CuP,22.343411274717454
mp-5869,Ca2CuO3,113.44179913678244
mp-7443,Nb2CrSe4,76.0
mp-23431,CsCu2I3,9.506340840370108
mp-20900,Cu3Sb,94.98216068810949
mp-13590,LiB(CN)4,29.83859507291945
mp-1042,HfSi,152.65474235592092
mp-3827,KFeS2,18.649191030338308
mp-616378,CsSnI3,16.0
mp-19086,BaCoO2,78.73636087631765
mp-672,CdS,53.31235566206108
mp-867146,ScNbRu2,194.7994286732423
mp-504659,Hf2P,148.82637018383315
mp-1019358,ThAsS,99.0
mp-779517,Sr3Hf2O7,136.0
mp-540809,Zr2Fe12P7,216.0678950587957
mp-7885,AlAgS2,76.31697900223983
mp-12814,Ba3SbN,27.07276350179129
mp-672299,YInNi,86.19841085730211
mp-27979,LaI3,6.499634192140036
mp-4391,MgSiO3,199.5079205353228
mp-10759,GeSe,58.19171299430622
mp-2780,Fe3Se4,88.34754072615436
mp-567097,LiCu2Ge,89.0
mp-10161,KZnSb,23.978486050724875
mp-8978,CsNbN2,95.7323606200855
mp-10326,Zn(ReO4)2,15.435785647313342
mp-762506,SrNiO3,112.91391544406349
mp-10256,VTe,61.649215950095346
mp-29803,SiH,16.74942018434346
mp-23,Ni,198.07254903103367
mp-12571,HfBeSi,147.63645671216182
mp-18775,Fe3PO7,136.03060716072895
mp-10903,AlPt,186.0
mp-867926,LiInPd2,95.32809887543306
mp-1029294,LiSn2N3,84.47549605780041
mp-631408,KSi2Hg,27.0
mp-1073,CaCd,30.515285549585517
mp-2618,DyAg2,74.0
mp-3201,Li2GaPd,66.81462244470896
mp-862710,Sc2CdTc,101.29529991674649
mp-30227,Rb2WCl6,9.622750497414613
mp-862548,Sc2AlZn,76.13649272279514
mp-2793,AuSe,9.36634157378944
mp-4613,Zr2SnC,127.33914860764669
mp-19308,Li2NiO2,113.87903252426337
mp-11696,As3W2,134.45180234616822
mp-568792,Si5Rh4,180.91558583669368
mp-556777,Li2CO3,75.69873542940672
mp-978283,Mg3In,22.0
mp-20937,Cr3C2,319.8210813019853
mp-568901,NbFe2,195.59739388090247
mp-11621,ZnNiSb,102.0
mp-29816,Ag2HgO2,39.72641177492086
mp-557993,BiO2,40.693579712731825
mp-600125,HfInCu2,122.72782641766523
mp-1604,Pt3O4,212.89043475144402
mp-31453,NbSbRh,152.61056492282532
mp-23514,BiSI,7.195684602855604
mp-978264,MgW3,151.17636148684016
mp-771686,NbCrO4,164.8897035546959
mp-865126,NaTlPd2,74.97026852221768
mp-7940,KNbSe2,57.21190751804586
mp-33,Ru,308.0
mp-28919,Hf3Te2,27.420470213018564
mp-977435,ZrAlRh2,201.0
mp-752881,Li2CuS2,41.0
mp-28066,ThBrN,22.59183256628778
mp-991676,NbCu3Te4,29.95029737483567
mp-985782,H2C,43.930852696589724
mp-10173,Li,13.832380783517456
mp-961674,VGePt,107.0
mp-7142,OsC,383.89257012062416
mp-996995,MnAgO2,106.37053829540966
mp-5532,Sr2TiO4,126.98188193537806
mp-973024,La3Hf,39.27549866937011
mp-13914,LiCo2Ge,152.2965063930462
mp-438,Nd2S3,74.0
mp-22150,Zr2InCo2,132.342949378534
mp-1009820,SnC,120.96631034330736
mp-999117,TcN,352.0
mp-753722,LiCuS2,42.41844214132533
mp-2705,VPt3,240.7439425539396
mp-505244,FeCuSe2,27.74346703368409
mp-7748,NaAlO2,133.41219196090728
mp-865512,YMgCd2,52.265183752502715
mp-971706,ZnBiO3,153.01138084969705
mp-23697,K3AlH6,19.691860531252765
mp-866120,Tm2TlAg,69.0
mp-28448,DyCl3,12.203318320199099
mp-1025441,Ta2AlC,193.56499965538384
mp-861,Hf2Ni,129.67212247018622
mp-765184,W3O7F,227.81653354160937
mp-11500,MnNi,149.3352319353071
mp-21188,CeNi,73.39753155399404
mp-23208,UCl3,25.0
mp-2664,TiO,224.22078368804284
mp-20458,PtPbF6,54.56178870064107
mp-867172,SrMgTl2,31.74739286993185
mp-864639,Ta2NbOs,244.0
mp-5436,FeCo2Si,201.69111447683474
mp-16764,RbYTe2,26.87069226418668
mp-24960,HoFeO3,177.01298174577926
mp-18712,Mg3Pd,59.41240120240703
mp-862588,LiDy2Tc,67.0
mp-975913,PrNbO3,180.0
mp-567817,HfGeTe4,13.394062070432188
mp-765852,Cr(CoO3)2,41.48970203008297
mp-568509,Er(CoB)2,145.0
mp-546500,NaCNO,26.800055907420678
mp-30867,ScRu,144.19768430924003
mp-771484,VCoO4,82.52077725740169
mp-864601,LiMg2Rh,66.70699045111473
mp-864983,MnVRu2,230.7890191940483
mp-772231,RbCrO2,107.71111228400758
mp-352,HfO2,204.5734326140447
mp-8487,CaSbPt,82.09983938253299
mp-2726,SrCu5,82.76090981317681
mp-22747,Pb(CO2)2,20.36160884227045
mp-33683,AgSbSe2,58.04121235545085
mp-343,PrN,132.99865060960443
mp-540584,K2PdO2,53.597331191146644
mp-21377,Sm,37.0
mp-2280,CuSe2,64.81509124766467
mp-1786,Ti3Au,138.99626373616965
mp-975608,Li2TlPt,55.0
mp-5193,SrZrS3,69.65157998455672
mp-6812,KBaPO4,53.611890857381184
mp-27275,Li3BO3,72.85338978935927
mp-984873,Al3Fe,125.43305383047195
mp-850978,VFeO4,130.7746021176635
mp-22950,CsNiCl3,15.0
mp-1129,ScIr,165.68181906068207
mp-2851,VSb2,98.37537606350378
mp-2393,YTl3,55.0
mp-8995,Cs2NbF6,20.00490319444533
mp-7859,ZrS,119.2634060560454
mp-614185,Pb(SN)2,6.7665495712531225
mp-4612,TiCo2Ge,179.0
mp-853130,TiNiO3,170.95154085914118
mp-13903,ZnSnF6,23.482984282862944
mp-865308,Be2CuRh,177.21739844279514
mp-1029474,Ca7SiN6,79.40224815078355
mp-10021,Ga,49.0
mp-8285,ZnGeO3,161.76459589622357
mp-20474,MnCu2GeS4,70.0
mp-3924,LiNbO2,154.19711113343357
mp-22882,YbBr2,20.0
mp-9146,CdHgO2,76.99367739080819
mp-23234,TmBi,55.0
mp-6919,ScSnAu,82.17715966483752
mp-16916,Ca6FeN5,76.22680657324324
mp-866077,MgSc2Cd,59.23417608381794
mp-4836,Yb(MnSb)2,37.0446633128736
mp-2968,Sr(MnSb)2,33.70147561519208
mp-15703,BeCN2,316.0
mp-773305,Mn3FeO8,83.43992193093473
mp-571147,Hf(SiNi)2,173.52939945753243
mp-3698,SrAlSi,52.287778824333756
mp-11275,Be2Re,242.30442362037726
mp-566755,NiF2,107.42588630846113
mp-776204,LiV3O4,131.0
mp-865010,HfGaRu2,195.70291613237163
mp-862486,Sc2AlOs,125.3281282578535
mp-973100,ScCu3,105.0
mp-2614,HfAl3,106.73729037169262
mp-1009077,FeH,176.89165383349754
mp-757100,LiCoS2,71.13566153262028
mp-31148,BaZnSn,34.545771550152864
mp-20849,Pd3Pb,131.5057465388927
mp-1014227,Ti2ZnN,149.32649797582062
mp-13570,Mg(ScGa)2,69.9044674701615
mp-27850,TiNCl,29.01764351536049
mvc-8242,CaSn2O5,122.46457943178385
mp-2252,ScB2,191.32624987719782
mp-774117,V2O3F,180.41543895501457
mp-867144,CaMgHg2,39.826260009004066
mp-7469,NaCuO,45.99313238962889
mp-12093,Ge,65.0
mp-2582,TiSi2,142.54235449683574
mp-11957,CaSn2Ir,76.91525905072638
mp-560676,CrAgS2,28.856828373276038
mp-2716,TiNi,151.63898868848162
mp-1756,ThB6,196.52842649140428
mp-23533,K2OsCl6,13.0
mp-5373,Y2Ti2O7,186.4823694508917
mp-11284,CaGa2,46.98052303436718
mp-776331,Zr5N5O2,221.6621731144212
mp-23715,BaH2,29.92850632644453
mp-865948,Ti2ReRh,214.58738833319316
mp-19968,CaIn2Cu,48.402419983427656
mvc-3978,Ca2Co2O5,110.25344128428085
mp-697096,Na2H4Pt,23.229860874557954
mp-865212,Fe3Re,309.7738120736377
mp-13277,BaLiP,39.33309745205376
mp-21521,Cs2PbO3,34.720260805840155
mp-1108,TaB2,302.2991081338895
mp-19390,WO3,224.0
mp-864982,DyBr3,3.6604778906483153
mp-1986,ZnO,126.98247524225201
mp-19962,Sn2Pt,93.27129080771687
mp-615141,Pb(ClO2)2,13.47756253398166
mp-11516,NbRu,234.3820853930283
mp-3677,MgSiN2,172.76054371492665
mp-862546,Sc2AlRu,111.0
mp-550070,NbBr2O,10.803405445900529
mp-10198,Mn3PdN,158.38668679870372
mp-1025293,InAsPd5,131.0
mp-22546,CoAsRh,194.7474411046087
mp-13149,BaAlSi,48.63772527492205
mp-568695,CaCdSn,41.968716177184746
mp-643243,Cs2H6Pt,11.358171299075346
mp-522,CuAu,135.0
mp-763326,CoOF,158.48423404823524
mp-962062,BaSrSn,19.0
mp-30501,Ti2Cd,91.4069981810117
mp-567842,TaBe12,136.97260811337978
mp-865603,Y2IrRh,119.31648718178494
mp-1705,Sb2O5,126.8502740691859
mp-10910,Al2Ru,167.0
mp-6938,ZnRh,173.4808376882829
mp-15651,NiSe,103.80438427417322
mp-7288,Sc2SO2,139.50278647066736
mp-1266,Na2Se,25.860055237219942
mp-776165,AgAuO3,125.87963855825821
mp-864950,MnAlIr2,230.6330785940501
mp-13161,ZnO,157.0173870365399
mp-25176,PbWO4,65.5170213491289
mp-22609,Eu(CdP)2,55.17988431671144
mp-696,SiPt,174.0
mp-782702,Ni5O6,124.78817608509884
mp-8001,LiAlO2,142.0082031102529
mp-773331,Li3MnO3,76.1348377975447
mp-2481,Mg2Cu,58.0
mp-2183,ThSe,98.0
mp-23210,MgCl2,9.632359026613713
mp-571096,FeCl2,7.721004563518478
mp-862658,LiCu3,90.48338768325786
mp-568974,Ca(CuSn)2,60.92217008041135
mp-643002,Mg2H6Os,78.0
mp-5549,MgSnAu,67.0
mp-15701,MgSiN2,174.0
mp-28395,B6P,199.32944691195087
mp-569270,V3B4,278.0
mp-13444,LiSn,36.36506361122685
mp-769930,CoBiO4,85.76925268324558
mp-34289,TiNbS4,19.41879671454041
mp-20275,CeGeAu,87.0
mp-12137,Ca(ZnSi)2,70.02518373821702
mp-862371,Sc2RuPt,147.27142550810413
mp-446,Cr3Pt,247.2822997477693
mp-20049,LiFeP,80.32885250048186
mp-769899,MgFe2O5,121.60112138983965
mp-13126,ZrN,199.96041055466392
mp-634676,KHS,13.78633926526664
mp-13456,ZnS,70.0
mp-22556,Tm3TlC,44.0
mp-865548,TiInCo2,159.03642155194308
mp-569484,Cs3Ti2Cl9,8.488624834318774
mp-962073,KBaSn,14.0
mp-715493,V4O7,74.0
mp-997616,BaC,37.823784979715256
mp-23797,LiH6ClO7,19.479498456530333
mp-29076,FeWN2,224.31655789461743
mp-998147,TlCuCl3,39.41472207105512
mp-979057,Sm2ZnAg,54.0
mp-27148,BeP2,89.44914140892305
mp-5920,LiAlGe,60.956154864065205
mp-1009538,PdC,178.0
mp-631484,TaTiAl,86.39896835968605
mp-10908,AlRe,220.39996457590527
mp-8636,Nb,166.5246383587758
mp-32536,WBr4O,9.758437402150232
mp-754538,HgPtO2,41.69055618497831
mp-866081,MgSc2Os,103.54229527757252
mp-229,ZrRh3,211.0
mp-555,Fe8N,182.45776822379185
mp-31498,BaPt,49.53731917740079
mp-11022,ScAgO2,123.24835067690323
mp-11498,MgTl,35.0
mp-2275,UF6,4.667235540692043
mp-30580,SrGaCu2,53.00145841752562
mp-10015,SiOs,295.07754498662916
mp-15679,CoAs,163.0
mp-754752,NbNO,183.91589023392052
mp-644481,ScO,174.44470400855425
mp-9954,HfAs,127.39461202774905
mp-5149,NbAlCo2,192.04441162696884
mp-122,Ba,8.856822896815668
mp-196,Al5Co2,125.42675367200769
mp-782678,Na4WO4,42.197569314285715
mp-999540,MnSe,51.46851710731382
mp-29661,Si5Pt6,181.0812657823988
mp-623024,TiCdF6,9.680692975620163
mp-1029336,KZnN,36.21947728705375
mp-5625,Ag2SO4,48.0
mp-568273,LiI,19.90324888595369
mp-23067,K2PdCl6,11.929429624519507
mp-30245,Mg3H4O5,47.50075753000672
mp-574,Ta2Co,221.749822143414
mp-17875,Ca6GaN5,71.34600608099998
mp-19442,Mn(Ni3O4)2,159.91431857484497
mp-32407,TaVO5,117.45122496642931
mp-7424,BPd2,179.0
mp-27710,CrB4,277.0
mp-505782,Cs2SO4,21.514062363544998
mp-570690,SiC,213.3872781812676
mp-775757,HfO2,215.91457805983924
mp-2168,SnSe,28.15489205019248
mp-998883,Ge,58.44279279390173
mp-11947,LiAlAg2,68.57645845662965
mp-30763,LiPd2Pb,90.7580789714228
mp-12411,Li2ZnGe,48.4053972494822
mp-16481,TiAlAu,128.1136804153652
mp-1029404,KGe2N3,135.0030340459342
mp-1486,ZnNi,95.0
mp-8577,Sc3GaC,100.17193120827335
mp-1403,Sm2S3,76.79566390897226
mp-774160,NiTeO4,38.60684307811655
mp-12696,YMgPd,70.18093758998994
mp-30778,Mg5Rh2,70.85887235741336
mp-18748,Co3O4,159.96511411759624
mp-570483,V5Si3,183.6948278192501
mp-18345,La5Si4,57.53981516036311
mp-2367,LaC2,92.14519875853432
mp-1007824,GaN,50.49458554470972
mp-11445,Y(TiGa2)2,95.2026622854553
mp-29362,GaCuCl4,9.704570691774153
mp-3006,P2Pd3S8,6.523636933425608
mp-635966,MoO2,89.1826785075565
mp-567279,ZnCl2,9.278433529628453
mp-463,KF,28.86914320487238
mp-973652,LuRu3,186.0
mp-12086,Cu3Pt,159.32135283933232
mp-755472,BaCuO2,87.97126724784309
mp-9029,Ca3VN3,87.334154788657
mp-7753,MgPd3,139.74289705908484
mp-10366,Nb2Co3Si,228.0
mp-2480,OsSe2,158.06780275782268
mp-567505,SiC,213.64038446229242
mp-8281,Ba(CdAs)2,44.40156354600074
mp-11388,GaIr,216.8269146865349
mp-8192,Rb2PtF6,22.0
mp-676540,TlSbS2,13.544984820334074
mp-864622,Nd2IrPd,101.0
mp-11808,ScNi4Sn,152.39406091331068
mp-864883,MgSnPd2,112.47654642602144
mp-971909,ZnPd3,151.19817583674472
mp-27488,Ta3N5,240.661625901508
mp-417,MnRh,182.50224789381423
mp-8605,SrSbPt,60.47375800915643
mp-9574,NaBeSb,34.76277651579064
mp-5745,Nb2CS2,34.72183134238708
mp-35785,Y2CdS4,61.66767644756736
mp-18707,Mg3Pt,69.63773373624446
mp-22460,LiIn,40.0
mp-18717,SrVO3,186.20830262313487
mp-676,CaN6,45.06735858899707
mp-864927,Hf2ReOs,217.98947398147357
mp-4664,MnGeRh2,188.04098989156287
mp-865877,Ti2RePt,208.85825788793224
mp-20426,Fe2As,140.23559887527165
mp-570784,Hf2Al3C4,197.0
mp-1689,HfRe2,262.0
mp-30031,CaI2,3.784276077585983
mp-6766,CaMg(SiO3)2,101.72445353140957
mp-570557,NbCo3,198.7273542851928
mp-542854,Mg9Si5,59.0
mp-28,Ce,38.71807098123135
mp-28610,CsAgCl3,11.977344740194626
mp-1793,Zr3Te,105.68118487565216
mp-980192,YbOs3,222.0