mpid,formula,bulk modulus
mp-492,TiN,280.93937413147614
mp-21264,OsN2,359.0
mp-27335,NaAlSi,41.31547098874734
mp-760482,F2,2.305929163647058
mp-341,PbF4,30.55956321280846
mp-381,SiRu,248.0924573730694
mp-864940,Mg2PtRh,119.07535656645271
mp-11522,Ni3Sn,162.6926791568358
mp-19970,Li3CuO3,78.0
mp-676310,Ni2SbTe,104.16131445906055
mp-974641,K3Tl,39.0
mp-190,ReO3,243.22969369537068
mp-30418,SnAu5,114.3906678491288
mp-2746,MoC,334.9131837706203
mp-20327,TiP2,130.99355279086078
mp-754515,BaMgGe,32.788559402366474
mp-866154,TiBeIr2,241.25157623151168
mp-865231,LiScTl2,40.437985255138564
mvc-6934,MnO2,193.69610628661098
mp-542106,SbPd2,127.0
mp-777555,MnV2O6,48.58628773019607
mp-7907,Al2ZnSe4,38.08905018375239
mp-775331,LiVO2,134.20341917644024
mp-558137,AlBPbO4,66.71672091946681
mp-866219,HfSnRu2,202.26465471212623
mp-504580,VCuO3,138.22823783602306
mp-19820,TmPb3,50.0
mp-22717,CaIn2Pd,59.35317650942357
mp-9814,Cu3SbSe4,58.4167475108584
mp-8311,Si3NiP4,104.81480807650827
mp-775935,ZrO2,126.70122266902668
mp-7466,CaCu2O3,74.41377956739174
mp-1001788,ZrB6,179.27388186159283
mp-20563,Ba(CoAs)2,69.43026096372952
mp-571499,TaIr,273.6917625902487
mp-23060,Cs2PtI6,8.0
mp-21372,CePRuO,123.0
mp-864919,MgTiRh2,163.01392238913368
mp-775808,MgO,115.0
mp-13572,ScSiPt2,173.34408089251122
mp-768063,V2P2O7,118.69890454802812
mp-3102,TaCuS3,43.29685628394265
mp-1068,CuS2,77.48977616085091
mp-866083,Zr3N2,195.85725995231013
mp-867251,LiZn2Pt,103.44041815499467
mp-752849,Y2Pb2O7,140.979228045681
mp-129,Mo,262.38975286116903
mp-12954,CuBS2,114.22235008132095
mp-776626,LiVF4,53.21173313964977
mp-754812,Al2O3,130.38903972043434
mp-4182,CrAgS2,75.4919523573636
mp-20526,PbS,6.633485649885848
mp-51,Li,13.860513000436551
mp-8458,BaAsPt,68.88562192590018
mp-864898,Na2TlBi,22.624204316853533
mp-545999,AgSbO3,86.23639595602717
mp-13946,Rb2ZrF6,21.943363972946926
mp-556548,Bi(BO2)3,87.41195597531649
mp-865757,YbGaRh2,128.0
mp-12772,Hf2Al,113.21989871414208
mp-2287,SiRh,183.6093777889389
mp-23353,Cu2HgI4,13.634474564839248
mp-864654,Zn2NiRh,156.38789030317332
mvc-5948,MgTi2O4,161.57732332904004
mp-764360,LiVF4,40.10279298570462
mp-570896,Tl2Pd,54.09395869191186
mp-1885,AlIr,229.3084986593757
mp-1326,Nb3Sn,165.19710186240073
mp-6962,Ba(AsPd)2,63.72889661737578
mp-977264,Pm2Mg,39.0
mp-571053,Al5Mo,118.53135344294964
mp-675460,LiTiCl3,35.941554348109925
mp-22956,K2PdCl4,12.69569280535084
mp-573697,CsCl,11.780408560018534
mp-8842,CaSiPd,66.01735851307252
mp-862256,Cu2PdAu,141.1402822441246
mp-865809,TiTc2Sb,212.0
mp-34139,Mn2CrO4,153.05725762031867
mp-28077,PbBr2,1.7917657217408147
mp-865793,LiSc2Rh,85.22227686817345
mp-571122,FeI2,8.931529027621252
mp-35082,BH6N,5.773892360618492
mp-1683,ZrSe3,16.329043594187524
mp-21609,SrCuN,68.03053180403575
mp-867862,SmMgAg2,61.0
mp-1342,BaO,68.35650846399855
mp-35143,BaNbS3,47.63217776215407
mp-2517,Ca2Si,36.71050402926868
mp-11470,Hg2Pt,83.47667636591281
mp-775845,NaCoO2,101.27449580303288
mp-19420,Sr2MgWO6,126.76971325496528
mp-20557,YSiNi,112.1681286936832
mp-600089,CsPbBr3,12.869809228648098
mp-771200,LiCo3O4,142.0
mp-567551,SiC,213.5880353903092
mp-775036,Li2FeO2,111.10842264506522
mp-2741,CaF2,76.54559136565447
mp-780545,Na3VO4,45.37137758395557
mp-557873,SiO2,36.295541772207024
mp-11557,ScRe2,226.0
mp-36699,Ce2Y2O7,144.12097901738008
mp-1357,P3Rh,150.8848450839219
mp-19419,LiFeO2,121.40718655383957
mp-629015,BN,100.56245127881256
mp-16493,YAl2Co,89.22888037463804
mp-2056,Ni3Se2,105.49026959533522
mp-974474,ReBr,121.0
mp-9321,Ba2HfS4,57.60610559517078
mp-777667,LiV2O5,74.19521091473183
mvc-3769,YMoO3,121.71170026467131
mp-140,Ga,49.36633661878896
mp-16343,LiInGe,42.96507701143362
mp-774138,V2O3F,119.78178149384786
mp-1371,Sn3Pd,64.1378893846865
mp-1203,TiO,195.0
mp-1021328,H4C,0.9905521088777232
mp-714961,Ni3O4,143.16844092894368
mp-775001,V3FeO8,6.673697948149201
mp-11247,Li3Au,42.2634298400043
mp-776205,Hf2N2O,173.3432881385794
mp-646824,Ca3Ag8,49.81201839280219
mp-568636,TiCr2,197.62817500829937
mp-973966,LiIn(IO3)4,29.06112718822852
mvc-3489,Y2Fe2O7,166.54448809989955
mp-984721,BeGaCo2,201.0
mp-765545,LiVF3,57.02246682914712
mp-13982,CdCu2GeS4,66.55126944608497
mp-510624,SrFeO3,131.3827469419987
mp-19318,Ag2MoO4,66.92641728236542
mp-3534,Ge2Sb2Te5,23.0
mp-1519,CaTe,35.98909077393668
mp-3032,RbBF4,17.032733996299456
mp-865538,Ti2RePd,191.92383961162238
mp-29750,CsMgBr3,10.691206191613496
mp-10755,TiFeSb,113.55241956246513
mp-648,Na2S,28.06279048579525
mp-29678,AgBiS2,61.407521687381184
mp-29352,Ba2PdO3,86.21364608559091
mp-772598,MnO2,33.0
mp-258,ZrV2,140.20104388212866
mp-1865,UN,218.0
mp-1779,YbTe,39.6874877546731
mp-34688,TiO2,181.9966232372929
mp-997006,AgPtO2,123.0
mp-675025,SbRhO4,188.0
mp-1081,V3S4,98.16222095315383
mp-546794,SiO2,27.29205458835464
mp-640024,HfInNi2,144.0
mp-21467,TiCo2Sn,168.18281506686301
mp-643063,NbSe2,23.0
mp-20432,Fe2Ge,137.8183595629162
mp-6999,ScPS4,7.917623224816339
mp-22896,LaCl3,31.58036740133996
mp-30999,CuCl2,7.404334597968838
mp-2469,CdS,52.92445029157594
mp-16718,Al6Tc,107.0
mp-571247,Al3Mo,135.5239290776089
mp-32311,Re2NiO8,15.0223640186964
mp-10255,Nb3B4,273.9442218478777
mp-22888,CaBr2,20.73258961966483
mp-19407,MnWO4,127.36968888986807
mp-30852,TiPt8,241.60238281735832
mp-3519,ZrSO,130.14857314559856
mp-762920,FeOF,93.52713169484899
mp-4533,Na2SiO3,61.9816822300465
mp-12773,Zr2Al,100.11249909224495
mp-865484,V2CrRe,250.9295069570333
mp-4364,NbGaCo2,194.11775478580586
mvc-6281,Zn(CuO2)2,103.03648193181948
mp-1009078,CoN,304.70012095037015
mp-1029448,Li5OsN4,69.59329270562367
mp-126,Pt,243.72306728191413
mp-20841,Ba2CaIrO6,108.56571093330702
mp-978508,Si3Os,165.75152323310138
mp-7812,GeO2,23.388865184673833
mp-978493,SiSnO3,43.0
mp-581733,Zr4CuP,119.85035172239357
mp-5163,LaRhO3,173.20020744597943
mp-983063,PmSmHg2,57.0
mp-649479,Ca5(InSb3)2,35.57674596293862
mp-975906,LiAl3,62.94339004207265
mp-13801,Tl2Pt2O7,168.42814327650052
mp-10189,LiTiTe2,37.9990885757656
mp-867928,ScGaRh2,161.12572564371
mp-865165,HfScCo2,130.19166895988965
mp-5756,Cu3PSe4,63.89667643927913
mp-1120,Mo3Ir,288.0
mp-756132,Cu(SbO2)2,21.392980838484704
mp-21340,HfGePt,176.83316665832268
mp-1607,YbCu5,88.0
mp-6996,SmB6,174.8347688738506
mp-32662,WO3,149.77147985724042
mp-864980,MnAlRu2,218.0729824658329
mp-8982,CaSiPt,60.00747995564714
mp-27138,K2PdBr4,9.369522795738463
mp-9902,Sc2CoSi2,122.53094021954621
mp-5025,Zr2CS,165.0
mp-4117,Li2Si2O5,78.80539403791403
mp-774147,FeHO2,58.10057992201361
mp-742,Ti2Cu,125.75499580721657
mp-14628,ZnSnO3,144.0251622210348
mp-765125,FeOF,162.0
mp-5928,Al2CdS4,38.6860647947247
mvc-11532,Ti2AlO4,208.0
mp-1907,TiTe2,17.639714308773918
mp-10044,BAs,128.0
mp-865093,TiZnNi2,169.0
mp-542640,GePt,142.84605565269953
mp-570157,ZrBrN,15.43005580971848
mp-961657,YNiP,26.0
mp-7475,La2S3,69.16193608267577
mvc-15744,Cu2B2C,90.97305057794549
mp-7576,CrSi,187.0040521210157
mp-1013526,VS2,16.638804286494473
mp-676241,FeCl3,2.480992954328784
mp-28786,Zn(BIr)2,222.37771520559224
mp-665,SnSe2,14.769408940271996
mp-1138,LiF,69.88150378551063
mp-1018033,AgRhO2,137.0
mp-10284,YSi3Ni,119.47926821495564
mp-979712,DyYZn2,60.0
mp-3792,YAlO3,189.79953246873646
mp-14115,LiRhO2,121.2644924165472
mp-90,Cr,259.2768408307951
mp-13208,Mg2Pt,72.72659559736245
mp-20452,Ba(MgPb)2,32.005656791746624
mp-22631,Co2N,244.76780625536426
mp-1594,Ni2Ge,177.0
mp-24286,ZrH2,129.66399864194608
mp-3173,CaAlSi,57.093195117619416
mp-1849,Mn2P,194.40715523579968
mp-9563,Li2Sb,31.915065621525684
mp-13920,Ba(ZnSn)2,43.57922766269641
mp-23229,FeCl2,11.0
mp-868117,NaCoO2,109.67024187234371
mp-2251,Li3N,51.73306123579657
mp-574283,GdTe,72.62554681574397
mp-8943,PtF4,38.619009098134974
mp-3441,Y(SiRh)2,155.50722375348772
mp-10000,Hf2S,131.4023301801204
mp-5229,SrTiO3,172.73844260560242
mp-30363,BaAu2,45.0
mp-971682,Si3N2,140.47932602179424
mp-1220,Be5Au,137.57807067270278
mp-763705,Zn2Ni3O5,176.68707656253838
mp-755769,ZrO2,159.0
mp-569794,Ta,194.75145715868118
mp-14116,CuRhO2,163.9606158778499
mp-865043,MgInPd2,108.78625036099164
mp-1021499,Cu2Se,75.79572879321219
mp-540682,Nb2CoO6,142.8668840982429
mp-777463,Li2FeF6,37.05943092838498
mp-30459,ScNiBi,88.66727015925007
mp-623,HgPt,146.98693057880809
mp-10597,Ag,87.54076795148255
mp-768032,VOF,131.94730126382063
mp-7438,KZnSb,23.798373249098557
mp-16523,Al3Pd5,155.61656016473574
mp-30404,Li2SbAu,53.0
mp-865125,MgGaRh2,153.61400524238775
mp-567395,Li15Au4,28.41781342186067
mp-639662,CrF5,7.672305516911137
mp-20453,TiCoSn,77.0
mp-865107,NaMgPb2,30.633033012464317
mp-11464,MgHg2,40.62773366861524
mp-764338,FePO4,16.734625449059628
mp-2715,CoAs2,131.793125964378
mp-11431,CaGa3Ni2,84.59408069327993
mp-2612,GeTe,47.57262737676008
mp-778746,VOF,150.0
mp-10371,Cr2GaN,171.41344354996485
mp-867119,LiHfPd2,116.7143255394692
mp-754165,ScGaO3,178.91573056349534
mp-1008632,V2C,219.0
mp-1852,UF5,15.032269864389367
mp-864735,Mn3Ir,359.0
mp-2430,ZrGe2,107.23081128877227
mp-1918,FeRh,196.6905290171277
mp-28116,TiCl2,6.0
mp-1008610,AuN,172.4725433221134
mp-19761,LaGe2,64.9448692614601
mp-9258,SiO2,320.0
mp-977442,Yb2ZnGa,34.0
mp-775097,Li2CoO2,108.12542602248058
mp-961658,VFeSe,159.0
mp-1019584,CaAl2SiO6,126.52464954914684
mp-551,BaAl2,42.32584855529072
mp-561877,HoF3,65.46805309053008
mp-1025345,Ti2CrTe4,49.0
mp-30683,ZrGa2,99.7755364541222
mp-567612,ScOs2,237.1970002069655
mvc-16068,CaNiN,105.8896427631588
mp-684679,Sb6O13,119.14143349695864
mp-867925,SrAcHg2,37.0
mp-5479,RbAlF4,55.92614218486232
mp-862911,Ti2CoTc,194.05900111959176
mp-19830,ErN,171.0
mp-131,Zr,94.12933871706772
mvc-10478,CaBi4O9,86.0
mp-30851,Ti3Pt5,201.51388495483002
mp-975868,Li3Al,26.370377805596892
mp-27953,Mo2N,299.9928504733263
mp-30613,ErSn2,60.0
mp-29752,NiGePt2,196.0
mp-22759,CoBW,334.79569594585394
mp-752826,Al2O3,165.94696542901917
mp-1029469,ZnSnN2,132.97970936849134
mp-18949,VFeO4,89.59757811036303
mp-12580,Li2CdSn,36.73894386257699
mp-997055,CuBiO2,71.1410711837444
mp-622209,Al3Ni,113.24143738786805
mp-29862,SnBr2,6.0
mp-1687,BaPd2,70.84626504254277
mp-755298,Li4NbO4,72.84620784283301
mp-17129,Sr3(AlN2)2,86.16192251784302
mp-756095,NaCu3O4,47.222572311593545
mp-8648,TiFeSi,183.312327765746
mp-31153,CaGePt,89.86052253328207
mp-28145,Rb2PdCl6,11.4991984653281
mp-23804,Mg2FeH6,79.33393525055925
mp-36779,PNO,51.16865360405429
mp-5724,AlPO4,20.126451167974974
mp-865558,AcTe3,48.12089254940886
mp-647924,Eu2O3,106.0
mp-504600,NaH4ClO2,19.12575135854289
mp-11519,NiSnRh2,193.7451204608085
mp-998,Al2Cu,99.38560613039164
mp-766949,Li3VF8,13.673426590743865
mp-13138,Cu3Sn,106.41851523747484
mp-27145,Ca5Bi3,32.22272088185615
mp-13156,HfAg,117.29622133454671
mp-316,MnV,242.7561446548868
mp-556961,SiO2,15.738032382518648
mp-19814,NiAs2,113.9029118926374
mp-1067,LiAl,49.79439568891787
mp-4728,Cu2GeSe3,59.920550614055756
mp-862664,Rb2Zr2O5,81.70177227025731
mp-5498,Ca(MnAs)2,60.0
mp-19795,InS,20.033368954372524
mp-21851,MnSiIr,162.3672191536983
mp-37091,Sr(AlTe2)2,23.090681939890427
mp-640885,Er(CuTe)3,53.534280446152536
mp-18849,Fe2P2O7,75.85054600498279
mp-31502,ScCd7,52.901462646757864
mp-1096,CeS,87.0
mp-22323,In2O3,151.00399970028982
mp-20202,MgSn4Ru,74.06187738576767
mp-30820,Li2AlRh,80.32017717770644
mp-865094,HfNbTc2,215.82734693439977
mp-9923,VP2,152.16419229572512
mp-555678,Na4Ti5O12,130.85019404883892
mp-29091,Ti(CuS)4,76.18567203023593
mp-768030,FeOF,112.0
mp-230,SbO2,91.85498907033669
mp-37620,LiMnO2,115.5917058261644
mp-1019,YNi2,120.98909197897169
mp-2234,Er2S3,69.01878465578369
mp-570691,Ti3Sn,114.0
mp-4653,Y(SiIr)2,175.1906078790356
mp-865586,VGaRu2,239.0124610734569
mp-22050,Hf2In5,72.0
mp-755264,TiO,236.74693692163845
mp-644693,Si,52.0
mp-24842,KCoO2,63.26125813047739
mp-1563,CaSi,53.26869169249734
mp-1016853,CaVO3,159.0
mp-13447,Zn13Rh,88.06784380977732
mp-1474,Re3P4,186.9315494773637
mp-10143,TiB,101.49901937992728
mp-19789,Mn(BW)2,305.8433892797284
mp-1111,Mn5Si3,148.0744846842858
mp-971,K2O,27.0
mp-486,NiP2,106.13219360869223
mp-643945,TiFeH2,185.7547923493415
mp-29396,Cu2PbO2,50.65322031501292
mp-796,Nb3Al,161.13895912529136
mp-765880,Mg3Fe2O5,153.72324431742317
mp-774712,LiCuS,53.770386652708176
mp-753982,Li3CrS4,12.0
mp-19082,TiMnO3,159.1167277707689
mp-108,U,132.95397449017702
mp-30357,Sr3Ag2,21.1316753960435
mp-10426,Nb2O5,60.503574629180726
mp-669347,KCuF3,75.0959939745876
mp-4551,SrHfO3,163.23738362131766
mp-1749,CaAl4,56.92250591389981
mp-568446,Er5Si4,79.0
mp-770086,FeNiO3,162.5553046159869
mp-11231,YAl3,76.31744647523323
mp-570286,BiSe,3.4738045321947646
mp-30183,ZrAl5Ni2,120.37516948710102
mp-10148,InSb,44.770865922543145
mp-684692,IN3,7.150913693077519
mp-865587,Y2CuRh,88.89542223129186
mp-972641,SmHoIr2,128.36416392846806
mp-766951,Li3VF8,19.10893634557701
mp-1025517,Ti2InN,137.09569481702528
mp-1320,CeSe2,68.34387574499415
mp-620571,CaInPd,60.60752284063217
mp-765271,KFeO2,43.203976256263246
mp-865321,Lu2IrRu,137.0
mp-673245,CuI,38.0
mp-866075,MgTaIr2,214.9604348733466
mp-2361,Hf5Al3,110.97686783402
mp-23054,NaBiO3,58.0
mp-981313,KTbO3,55.0
mp-1008682,TiS2,60.18390921101842
mp-1018107,ZrTe2,14.126741524042904
mp-31584,Na3CoO3,51.256367574241544
mp-505110,FeCuO2,143.7426496319739
mp-31467,Ga3Pd7,149.29039494041922
mp-780880,Rb2CoO3,32.1860977369636
mp-753176,AgCO3,62.0
mp-1502,Al2Pt,128.64275225801055
mp-5221,HfAlCo2,172.3503025355011
mp-1029832,Ca2NbN3,79.3581733624887
mp-23856,LiHO,13.620621385368436
mp-10550,SrMg2N2,94.17111045520511
mp-18875,MgWO4,135.99220427793415
mp-25886,CuPO4,59.97515670400973
mp-2493,CeN,146.4132855815099
mp-979273,TePd3,136.0
mp-999142,SnO,86.48611470671919
mp-631355,SrCrRh2,84.0
mp-566504,BaWO4,82.40592307413323
mp-2472,SrO,87.42517203457136
mp-16263,CaZnGe,49.30119921349885
mp-25180,Nd2WO6,124.65380947837588
mp-30175,Ca(AlZn)2,61.38686137159882
mp-864651,Ta2NbRu,225.1479003696416
mp-22565,MnSiRh,153.5208460257459
mp-554573,SiO2,26.036664924824986
mp-2657,TiO2,209.1035318871827
mp-631503,ZrAlW,100.22974499621431
mp-2451,YAl3,72.2878331675428
mp-4252,SnPS3,16.280672319763568
mp-2749,TiBe2,123.62027857457748
mp-4368,SbPdSe,84.28155199580357
mp-2322,YAl2,79.60995905875815
mp-945,NiPt,213.2272725467451
mp-30435,BaZn2,27.0
mp-542915,TiAl3,107.48491068005232
mp-972793,Si2B2O5,160.30935230868602
mp-3668,CdGeP2,65.0
mp-1087,SrS,46.975130067774
mp-3597,BaRuO3,116.95217089706249
mp-8939,Si2W,220.92766497089215
mp-31496,Li2Sn2Au,47.449437186728275
mp-865500,Na2Hf2O5,99.26985878523769
mp-19799,BaPbF6,43.0
mp-31118,SmScO3,161.77093943096315
mp-30635,Fe3Pd,165.01347162570022
mp-567629,CsPbBr3,17.639260824237013
mp-1168,HfTe5,12.284307951115036
mp-20125,GdSi2,76.0
mp-29950,Nb3Cl8,13.593499224275105
mp-861481,Pr2AgRu,83.0
mp-333,HfFe2,162.04295146438676
mp-16254,BaCuP,57.26444915597313
mp-505527,Ti5Si4,142.1856475094593
mp-7631,SiC,213.09857918208732
mp-27440,ZrCl,18.530292141371852
mp-758658,CaAl2(SiO4)2,83.0
mp-684663,I,26.059576211703227
mp-1702,LaRh2,134.830085932331
mp-2674,YPt2,162.39707836030382
mp-863737,Ho3In,50.0
mp-561306,NbCoO4,149.15898478638246
mp-19817,Y3InC,76.56783560255542
mp-7598,NbAs2,124.47219562216948
mp-1029257,Zn2ReN3,127.0
mp-760376,KTiO3,54.67051672017771
mp-540789,PbI2,3.9839047505824494
mp-867887,Sm2CuIr,111.0
mp-7909,Al2CdTe4,25.62153208529777
mp-15659,Sb2Pt3,135.27600912645735
mp-640041,NbZn16,84.89575160239434
mp-1001023,BeC2,82.71614631594176
mp-677335,GaPO4,26.705471217132352
mp-561317,Rb2NiF4,41.087763523390024
mp-20318,Mn2B,319.72079611545763
mp-7937,NaNbS2,75.46345341012088
mp-13501,ErCoC2,173.0
mp-4280,GaCuO2,151.2609694086285
mp-19146,CrPbO4,33.46697601455618
mp-738,Sb2Au,71.18962688853222
mp-971683,C3N4,68.07158491574593
mp-571353,BaSn5,36.0
mp-10666,Mn3AgN,140.84301837282487
mp-863664,Pm2CuGe,56.0
mp-762225,BaCO3,48.32084014390748
mp-568931,YbNiSb,68.98822891705103
mp-22478,FeGe,145.2719952721649
mp-19311,V2CoO6,52.3747058756821
mp-616440,C,435.65080732588996
mp-2858,ZrO2,183.05128755682853
mp-864670,Ta2VOs,247.0
mp-30351,MgAg3,73.6398662451914
mp-978270,MgZr3,79.91078008405489
mp-9956,AlCr2C,188.8129346037004
mp-5971,YBPt2,159.1699479099228
mp-862553,Sc2BeRu,111.31563043963459
mp-23038,CsVBr3,10.905397596739542
mp-999133,TaPd,203.8704140698221
mp-552588,LiNbO3,142.0
mp-643718,BaMgH4,35.13304513453315
mp-568328,FeP4,139.3373008885373
mp-3933,Mg2PN3,150.42302239179628
mp-30811,Ni4W,234.14774906549843
mp-1523,ZrP2,126.62017015879124
mp-567197,YSnAu,78.36050635321541
mp-867829,LiVRh2,178.7569474323409
mp-715478,CoO2,13.0
mp-4043,NbCu3Se4,33.16779922499612
mp-755000,LiTiO2,128.70383562617224
mp-13276,SrLiP,44.2997181160619
mp-13240,ScInCu4,112.04667507075226
mp-572758,ReS2,27.53578435253961
mp-10055,Co2B4Mo,303.0
mp-631495,BaYSc,17.0
mp-13092,Zr6Al2Ni,104.82659602785047
mp-3432,ScNiSb,104.0
mp-13070,Sc2AlC,86.22744305865463
mp-20337,ZrPbO3,119.3465890969253
mp-978525,Si3Mo,130.06874928658496
mp-862679,TaZn2,151.57994596613997
mp-7427,Ba(ZnAs)2,51.37173361313953
mp-5348,MgCO3,105.29752934273122
mp-1029334,Zn2SbN3,131.5797457456543
mp-11560,TiSiRu,202.24880149725368
mvc-2132,Mn4Al(CuO4)3,139.0
mp-560023,NiSnF6,30.977333142005786
mp-16495,AlCrFe2,239.46024182937103
mp-11202,Y6FeSb2,58.89775521621621
mp-10598,CuSn,76.51661286065092
mp-862781,AlCrRu2,230.6797026193255
mp-368,P2O3,2.7020277376567003
mp-976838,Ni3Au,173.39808273184957
mp-11220,Sc2Al,70.28572074533245
mp-862629,ScRh2Pb,139.79815922254386
mp-862360,Sc2NiIr,146.5446338839318
mp-25122,VBiO4,127.60343690749279
mp-10059,ZrCo3B2,243.99620709495042
mp-865355,Zn3Pt,128.9223454485582
mp-569346,CuI,38.629158510586294
mp-22903,RbI,9.655227124775172
mp-22752,FeSn2,79.90027782472002
mp-30722,ScHg3,63.70159368510485
mp-15120,RbFe2Se3,15.745777111393394
mp-22036,ZrSbPd,128.47912651093625
mp-2302,AsRh2,231.0
mp-19955,Co2CuGe2,161.13366523903616
mp-548,NbCr2,227.60198458661858
mp-33997,TaO2F,183.37259317205655
mp-866311,Bi3BrO4,59.79841066318468
mp-688785,Al2NiO4,136.12849956477442
mp-752685,ZrBiO4,97.1853181050163
mp-30581,Hf2Cu,123.36928558062608
mvc-11649,Ca(CoO2)2,165.09350513879468
mp-30593,ZnCu2Ni,142.72784980638215
mp-21503,YMgIn,53.93763933859153
mp-24428,KH2N,14.787752908298433
mp-22227,ZrMnSi,146.2922935783026
mp-1023128,CuS,104.82740632444252
mp-637771,ZrInNi4,160.81851204307287
mp-21863,Pd3(PbS)2,57.08461774308136
mp-21409,Zn(InS2)2,11.240099125992813
mp-756490,Li6MnS4,44.0
mp-3654,RbCaF3,45.8646336871634
mp-510380,Mn3CuN,160.18713955947916
mp-5733,CaSiO3,92.0
mp-1029357,NaZnN,66.6957871227934
mp-865021,Be2RuPt,223.09056518310504
mp-25172,Ba3WO6,95.22812807493229
mp-10069,Ce(P3Ru)4,167.06875707400576
mp-21027,CaIn2Pt,67.0
mp-11984,YMgTl,53.908343665731785
mp-978279,Mg3Cu,46.286704937147725
mp-13089,Cu2SnTe3,45.738940765863454
mp-643,ThO2,188.3423576736856
mp-29379,K3BiTe3,9.513364596218613
mp-4627,CoAsS,138.95373453369706
mp-865925,LiZrIr2,158.27719827288968
mp-22966,C(ClF)2,2.4036217186639535
mp-505803,MnFeAs,110.46464431218895
mp-992,CaGa2,42.56970220015007
mp-9615,LiTiS2,68.0
mp-3998,LaTaO4,120.20190635279344
mp-11482,MoIr3,337.0
mp-756361,ZrSeO,121.84774664792538
mp-569567,C,435.1054757417971
mp-871,FeSi,211.46491309801712
mp-13520,Na2ZnGe,23.01040616933001
mp-251,TaN,326.85170247097716
mp-23714,SrH2,37.427075186810455
mp-29748,TePdI,25.468225889854075
mp-23137,Ba2YBiO6,115.0
mp-29374,KGaSb4,21.35047663297001
mp-3054,Li2CO3,55.0
mp-46,Ti,112.97692899973616
mp-8221,ZrAsRu,187.0420863371816
mp-7086,RbFeSe2,16.003658410157882
mp-764716,Fe2OF3,116.86856894025765
mp-7038,TlPd2Se3,21.1584923314412
mp-17862,Ag3Ge5P6,64.90887161418063
mp-862260,ScZn3,77.22388839480216
mp-567713,Nb3TeI7,12.280688325999234
mp-5827,CaTiO3,174.76943198556472
mp-1009129,MgO,139.0
mp-6633,NaCSN,17.84035669923103
mp-510589,MnCuO2,112.04741880151155
mp-19120,MgCrO4,64.14009612561668
mp-241,CdF2,96.62557178539494
mp-862600,Be2PtRh,216.00008362594082
mp-569639,TlCl,20.0
mp-557569,SmAsS,80.0
mp-775906,Y2O3,139.1100155300389
mp-22792,MnTePd,83.51031724350456
mp-20344,Fe3Ge,177.49133599541028
mp-685055,CrTe2,29.50821713871021
mp-8219,Zr(CuP)2,128.63442616284595
mp-866132,Na2TlSb,22.264892503418785
mp-773525,LiFe3O4,87.45931830069428
mp-24668,CsHF2,19.50017311429045
mp-862705,AlZnIr2,220.99716975734074