mpid,formula,bulk modulus
mp-31457,ZrSbRu,135.57339592498994
mp-28283,CsTiCl3,15.833900923432408
mp-862565,ScBr2,33.0
mp-29403,GaCuI4,4.617064913192063
mp-570826,VSnRh2,175.86797314604013
mp-865805,TaZnCo2,200.05157051180814
mp-14092,AlAgTe2,42.36020434817861
mp-12674,MnAu,116.11827848409482
mp-156,La,23.0
mp-30570,CrGaFe2,251.82793506853847
mp-865301,TmBr3,4.002880337313286
mp-569522,MnP4,137.20388626889255
mp-5072,Rb2HgO2,23.679513500013122
mp-541837,Bi2Se3,12.501772295958743
mp-985587,Al2O3,36.713622694139524
mp-570510,Xe,0.5615896771092568
mp-556125,Na2BHO3,44.99536920625333
mp-21455,EuAlO3,175.20002288595668
mp-542903,ZrPbO3,113.224518412929
mp-19602,Ba2CoO4,58.63220806990266
mp-867287,LiInAu2,56.0
mp-10166,NaAlSe2,27.96670148295238
mp-756638,NbRhO4,213.91601414455002
mp-999052,Ti2MnAl,21.0
mp-31339,ScInPd2,118.0
mp-21199,Na3(GePt)4,83.19687341252336
mp-7285,HfNi3,180.6667946936556
mp-559276,AlBPbO4,77.94923321782463
mp-250,Mg2Ge,41.52499232672382
mp-1029633,CaSnN2,94.92773154824499
mp-976262,LiMg,25.216746175695405
mp-867924,LiCdPd2,90.44190448609592
mp-117,Sn,38.48975875447928
mp-861629,LiMnPd2,112.0
mp-510536,MoO2,218.70097899852112
mp-570259,MgCl2,10.33155856078331
mp-856,SnO2,171.93721697055733
mp-21306,TiCoSi,180.7882866232959
mp-9801,HfCoAs,181.3110664206879
mp-16293,KSbO3,112.49581711617078
mp-864908,MgTiIr2,198.60836500913624
mp-30658,VGaNi2,185.69131437304526
mp-22725,TiInCu2,120.0000749935007
mp-505540,TiAsRh,178.45621830010117
mp-981366,Zn3N,105.09886812706915
mp-22447,Zr3P,125.0
mp-865376,YMg3,40.12903944647255
mp-6521,LiLaTiO4,120.77188178964607
mp-565348,LiMnO2,102.31142536947544
mp-500,TaSe2,22.0
mp-350,Zr5Te4,67.0
mp-568280,Ba(NiAs)2,63.6837617764038
mp-569331,Li(Sn3Pd)2,61.79124029838212
mp-976239,LiMg,25.63141097449673
mp-31460,NbCoSb,155.93952367149902
mp-12910,GeS,27.42709897317346
mp-772099,Cd(CuO2)2,123.71165667598908
mp-8677,ZrTiTe4,15.0
mp-2661,SrSi,49.0
mp-864931,MgCo2,118.52094744807829
mp-545512,CaO,87.0
mp-2075,Si3N4,293.2124909609184
mp-16740,TiGePd,148.45358928668603
mp-10521,Y(AlGe)2,71.32991253395403
mp-20552,Cr2As,165.0
mp-5129,Y(CoSi)2,145.1475627077899
mp-34169,Zn(InSe2)2,30.17187344874895
mp-7070,Mn3PtN,172.53588519257954
mp-9687,K2PAu,21.119394216607706
mp-29556,Tl2WCl6,14.647231180335725
mp-560242,NaMnF3,59.86629428209389
mp-1821,WSe2,19.91554330404405
mp-557713,Ba2LaTaO6,121.3241417706954
mp-863739,ErCdRh2,125.0
mp-11285,Ca3(GaNi)4,77.26384020878797
mp-22895,CuI,36.0
mp-862365,Sc2OsPd,138.40791068461408
mp-18919,CoPdO2,152.8736309856052
mp-1609,Cr3Ir,275.7963193941347
mp-685194,Li4Ti5O12,107.83899947264773
mp-568914,K2WCl6,12.231978261886187
mp-1023132,K2Cu(ClF)2,18.659614288291788
mp-566426,La4Ni3O8,131.0
mp-978285,Mg3Mn,46.0
mp-22003,NaN3,25.758507535547384
mp-570219,InBr3,11.0
mp-9472,LiAg2Ge,65.24699777962162
mp-6953,Ca(MnP)2,86.59424819060543
mp-2695,Sb2Os,129.4091123006362
mvc-8959,CaLaFeSbO6,131.88042090365462
mp-6986,Ta,193.96259220992286
mp-768310,LaBiO3,60.77930331785457
mp-786,MnSb,53.66136262855262
mp-29973,SrN,39.29910498559068
mp-99,Er,44.0
mp-19102,Sr2FeO4,111.47104830762032
mp-776791,LiFeF4,52.0
mp-9023,ScSiAu,113.0
mp-11278,Ta2Be,186.8179920610981
mp-173,MnAl6,103.79814447846807
mp-1339,NbIr3,313.4210495198472
mp-1400,HfW2,222.88276511245843
mp-19876,InNi,103.13954284088743
mp-864839,Zn2PdRh,158.90381890262125
mp-1,Cs,1.7128080410464268
mp-976139,Li3Mg,18.997540391367075
mp-865803,Ti2MoPt,192.53051429379917
mp-22769,TiCoGe,171.3886479273203
mp-864906,MgSnIr2,177.8121624869865
mp-569151,MnGaPt,122.43163083455069
mp-279,LiIr,143.8748005265926
mp-9212,NaAlO2,81.25775431821434
mp-7623,MgAs4,43.22762819735426
mp-866173,Y2RuRh,108.0
mp-861936,LiPd3,122.43913736352494
mp-15179,Pr2S3,72.72686842496417
mp-12927,Ba(BeN)2,98.35763910262652
mp-20050,InP3,50.75694600011636
mp-7559,YNi4B,156.3861551138035
mp-11287,CaHg2,37.531169936647736
mp-695998,K2ZnH4,16.713561642457186
mp-568284,SrI2,12.734130356340938
mp-540098,Li2FeP2O7,53.26067772067103
mp-1797,MnNi,148.8214728460807
mp-755450,La2Ce2O7,129.61655847027058
mp-1016108,TiZnN2,154.42500214940677
mp-568865,ZrTe,87.1773728008315
mp-571160,Tl2Pt,65.39589637414889
mp-7917,HfGeSe,111.84320583749391
mp-996,OsO2,281.0
mp-15986,Hf(CuP)2,132.91611245672493
mp-611608,CsNiF3,26.0
mp-540778,CsVO3,19.36453095638884
mp-4262,BeAlB,141.06826093131306
mp-9550,ScMnSi,117.94860825859249
mp-1222,CrSi2,195.53604122194642
mp-10848,AsPdS,103.0832574180987
mp-2776,Ga2Au,73.48385043261665
mp-23265,GdCl3,28.97134759781273
mp-13136,WC,365.3924732229077
mp-11263,Zr3Au,118.0
mp-5244,Ti2SbP,114.25237334135478
mp-19790,Rh(OF3)2,5.0
mp-975990,NaLiO3,51.0
mp-31516,Co(ReO4)2,23.0
mp-1185,VRh3,250.71768065163016
mp-685935,CdGeO3,58.805752407506894
mp-1025183,Ho2B4C,164.0
mp-801,Mo3Os,291.944530489364
mp-504594,ZrBr,18.801774007626
mp-408,Mg2Ge,49.842213845180645
mp-614603,CsI,7.0
mp-2918,YCuO2,114.0
mp-542920,LaFeO3,157.8886722788713
mp-862602,ScAlCo2,147.51092037766256
mp-639910,Y(Sn3Ru2)2,120.15799442058793
mp-17177,Nb2ZnO6,140.93819798577653
mp-553939,CaCO3,71.38316602752023
mp-1526,TiHg,104.19665691318731
mp-510404,GdSe,90.26212423570708
mp-31119,TbScO3,164.2161420889399
mp-27255,Ga2TeS2,24.946955759635358
mp-675078,Ba(FeS2)2,41.8027179946685
mp-218,Sm2O3,130.01468082864017
mp-16648,LiSn4Rh,63.62723466176793
mp-23264,TiI3,4.131581386719836
mp-12990,Ti2AlC,137.0
mp-11250,Mg2Au,58.41650591051462
mp-7343,Y3Pt,55.594637217602475
mp-4452,Cd(GaS2)2,36.400831414285314
mp-865928,Ti2TcPt,201.7527947328194
mp-13202,YCuSn,75.82229761309691
mp-7188,Al2Os,190.91157563193823
mp-7632,NiMoP,241.0
mp-3494,CeGa3Pd2,128.0
mp-635713,TiZnO3,63.818014103927965
mp-977218,Li2Mg,21.0
mp-21850,Fe3SnC,139.99001752603505
mp-1018142,NbN,226.83354322898097
mp-2723,IrO2,270.0238509633652
mp-1029309,Na2HfN2,37.776609237900736
mp-756597,Li2HfO3,95.3294822310679
mp-10457,HfSiPd,169.3478393303961
mp-1029779,ZnGeN2,149.0
mp-19953,ZrCuSi2,128.83247003142344
mp-571126,Ti2BRh6,227.79000756782142
mp-555763,ZnS,69.0318779038634
mp-30657,TiGaNi2,165.92942868101971
mp-14285,CoP2,163.16539836117926
mp-728,Li2Pd,47.960537386914645
mp-30818,Li2AlPt,88.0
mp-972892,MgHg5,21.22068530261324
mp-20941,UIn3,64.0
mp-753826,LiCuS,62.44961474723787
mp-4500,ZrNbP,173.75087604798546
mp-867810,LiYHg2,78.0
mp-1769,SbPd,103.96730018667265
mp-22795,Pb2Au,57.22483081808314
mp-569051,MgH2,47.9753937349537
mp-36480,La2CuO4,119.21273051787571
mp-862966,PmTlAg2,62.0
mp-22871,ZrCl3,5.947483104283267
mp-23752,Cs2MgH4,13.414110905933287
mp-25035,MnBiO3,104.70612523980208
mp-1170,SnS2,14.611322983770744
mp-31337,InPd3,140.1430733805458
mp-7092,TiSi,145.85965499768037
mp-867771,TaCuRh2,224.49644092184258
mp-712,YCu,70.24211369481614
mp-10904,AlPt,184.17776005848327
mp-20516,InPt3,204.58782538048283
mp-1121,GaCo,175.82684398588626
mp-978798,Sm3I,30.0
mp-11770,CoCu2SnS4,71.7083420824932
mp-865030,HfScRu2,178.02270627873844
mp-9010,RbAuS,14.0
mp-27507,ScCl,14.183762102517516
mp-2666,CrSb2,85.0
mp-12070,CuAs,102.16214264950906
mp-556520,CoF2,99.5169507549425
mp-13303,ErSnAu,76.0
mp-42,Ta,195.30601751017184
mp-573316,CsPt2Se3,23.0
mp-971853,Zn3B,91.16153187394173
mp-12622,SrPdF4,63.870461077647235
mp-21418,MnSnPt,107.85280209592995
mp-23282,ZrI3,3.1489662459905867
mp-1079946,Co3W,279.0
mp-7891,Mg3As2,53.56420891649507
mp-3671,NaNbO3,101.26299490328472
mp-28319,PtI2,3.9836059169573854
mp-580357,Cu3Pd,146.37735002832002
mp-21255,FeGe,152.64043936409246
mp-22967,Li2FeBr4,20.321978360271338
mp-864974,Hf2CuOs,175.51874136367215
mp-10899,AlVNi2,177.20275565709434
mp-160,B,211.34898436347413
mp-3955,AlPO4,29.0
mp-1029702,MgTiN2,161.67391456496168
mp-2604,MgTe2,37.747459202728145
mp-29088,Sr3(GeN)2,50.19365276417261
mp-1029395,LiCrN2,85.40765229175119
mp-554089,SiO2,20.094481262365587
mp-570538,NaN3,30.0
mp-779972,ZnCoO2,169.6542542768046
mp-2170,Li2Pt,68.06793566767685
mp-10048,GaAs,63.035363771513566
mp-569833,Zr2Ga,107.1079742244033
mp-2330,Nb2Se3,69.0
mp-2074,Li3Sb,38.0
mp-31081,Sc(MnAl2)4,103.20664441787605
mp-4138,Rb2CO3,23.87325295549233
mp-866291,AgBr,28.0
mp-30789,U2Mo,176.17283718773552
mp-11549,VPd2,190.1359466132577
mp-862334,Sc2IrRh,152.0
mp-12863,Ba(AlSi)2,42.0620231397145
mp-753605,LiCuS,25.52043245298095
mp-32541,WCl4O,4.714975706467334
mp-5637,SrZnO2,90.11284638292031
mp-2811,MoN,326.8661894758168
mp-8389,Na6ZnS4,31.593171415151005
mp-2221,Zr2Ag,101.0
mp-865640,TiGeRu2,226.40909942370786
mp-867917,CuGeRh2,199.26497119522045
mp-867216,TaFeRu2,235.7918137283175
mp-569785,TlPd3,132.07406687434366
mp-24721,RbH,17.0
mp-27762,UBrN,15.0
mp-627380,Mn(ReO4)2,13.668065160110366
mp-8884,ZnTe,43.41430006652458
mp-2369,SnPd,101.03871532866438
mp-775761,AgClO3,31.80412135455635
mp-1021431,CsNaICl,12.0
mp-990440,Na2ZrO3,81.69394354166599
mp-7433,NaCuSe,41.42068770530692
mp-21023,Ti3SnC2,158.0
mp-1033,BeNi,181.50658043445202
mp-17892,Ca2VN3,94.17376193854231
mp-13495,ZrPd,134.03413733987153
mp-11300,TiCdHg2,72.69604023982947
mvc-673,AlCr(WO4)2,59.70606190150096
mp-9166,MgCN2,96.0
mp-1180,MnPt3,217.20379464288632
mp-685146,CdTe,34.5369914559342
mp-772856,CuHgO2,44.254156175558414
mp-975794,Li3Be,20.0
mp-23710,MgH2,49.83938431664691
mp-9514,Mg(AlC)2,133.91307120997374
mp-570713,TiAlPt,161.5344476792024
mp-12903,YAgTe2,41.382968412914074
mp-20489,SrPbO3,104.9957940466646
mp-1818,SiF4,4.934290234073002
mp-3289,LaMgNi4,106.0
mp-13868,PdF4,34.87637971702257
mp-510219,Sn2Ru,117.82808837986649
mp-7472,RbAuO2,27.758506257771806
mp-865939,LiMg2,29.62838476184584
mp-552934,Ba2CuBrO2,40.73780375905177
mp-7435,KCuSe,34.11182221724377
mp-1029316,Na2ZrN2,36.0888559197147
mp-569423,Ga,48.61517973634186
mp-9579,AlTlSe2,25.02175181153623
mp-7434,NaCuTe,35.71171706178859
mp-17848,Nb3Si,184.16352519070838
mp-21003,Y2ReC2,123.73162141017141
mp-2500,AlCu,112.61496154279993
mp-81,Au,135.90767015815857
mp-19094,VO2,233.0574742138792
mp-29658,ZrNiH3,150.9384876133887
mp-20296,In2Co,88.53584242534995
mp-10381,K2CuSb,17.408481581703214
mp-20599,PdPb2,66.04928373481636
mp-866112,HoNbRu2,177.0
mp-582736,Eu(MgSb)2,38.61804771843735
mp-8073,AsPd2,122.2772431788966
mp-973786,H3Pb,15.0
mp-861619,TiZnPt2,180.1712932396228
mp-27438,TlBiTe2,28.725689586117397
mp-1029838,SrCrN2,92.24994452412712
mp-875,AlOs,236.0
mp-4584,Tl3BO3,20.40652981651352
mp-11503,MnZn,115.28282008342345
mp-12317,SrCN2,57.20607469955061
mp-14433,NaGe2N3,135.31531163258992
mp-20418,SiRh2,219.95262585404186
mp-22849,BiI3,3.0
mp-568696,SiC,213.415144500948
mp-4984,SiB2Mo5,271.009920808219
mp-2254,Al2O3,201.4876655407156
mp-7929,Rb2PtS2,32.24261455875212
mp-2772,ZrAl2,113.46085283025604
mp-292,V3As,193.92734321560886
mp-973174,NaAg3,47.0
mp-971985,TbAlCu2,53.0
mp-569600,Ge3As4,47.01181103308807
mp-624492,Li(Fe3Ge2)2,135.10793111988343
mp-867744,LiTi3O4,193.53664497161668
mp-30381,Li2GaAu,43.0
mp-2404,CaAl2,56.463856011596306
mp-567191,CaAlSi,55.3757778931691
mp-570832,SrPt5,160.6303851336377
mp-569568,Ta3AlC2,224.5853602331403
mp-1029592,Li3YN2,80.9067771935507
mp-31187,TiAlFe2,184.56046706824847
mp-25539,LiMnO2,116.0
mp-10909,AlRe2,255.09638868981148
mp-16363,CoAsS,130.60750973808865
mp-1029293,CsVN2,104.269555796666
mp-540832,EuFeO3,156.4935765442488
mp-1001835,LiB,69.4637994468686
mp-12763,TbB6,175.0
mp-74,Rh,253.4567194561315
mp-5190,ZnSnAs2,52.21037274382173
mp-1011860,Na2CoP2O7,42.0
mp-18167,Ca3Cd2,28.66667877233309
mp-999027,Ti3Al,110.21720181032083
mp-20199,PPbS3,28.05197583215384
mp-600428,Mn3Sn2,75.0
mp-351,SiNi,164.218581970404
mp-2019,LaRu2,143.3971499503688
mp-21508,Y2Pd2Pb,82.49297424926924
mp-7429,Ca(ZnSb)2,43.75039551757958
mp-4842,Al2ZnS4,84.06881208687409
mp-20436,TaSiRh,235.42545675140232
mp-1968,La2O3,115.743345039522
mp-567164,BRh,275.14304284700194
mp-14983,Si4P4Ru,119.8324470882722
mp-765195,WO2F,86.79585024380677
mp-30273,AcClO,67.0
mp-10163,NaAlTe2,22.129196115913352
mp-864765,Na3HfF8,44.99382072100028
mp-1019550,BeGeN2,191.09729885178584
mp-777130,Li2FeF4,27.441814250001677
mvc-13470,MgBiF6,19.0
mp-1714,FeSi2,180.659903125974
mp-4608,KPF6,18.044046633978006
mp-29754,SrLiN,53.6975242040479
mp-4091,Ni2Mo3N,273.4835729877831
mp-9610,Li2CN2,49.6219602103152
mp-985591,Li6PS5Br,28.08891512833005
mp-56,Ba,7.97930845632949
mp-558579,TlHCO2,8.057490986285378
mp-558518,K(NiS)2,29.50955017363333
mp-925,VN,318.8910588062398
mp-16528,Al6Re,112.5884156755091
mp-557680,NbAgO3,118.3310438790487
mp-582227,Eu(MnSb)2,39.26009826719989
mp-8307,CaNi4B,132.89867591046038
mp-84,Sn,45.711050766046036
mp-505804,Ti2CuSb3,91.87807045211984
mp-101,Ir,346.3227612891384
mp-9382,SrZrN2,150.0
mp-31907,Mn(ReO4)2,20.17332707957388
mp-1027164,TeMoWSeS2,18.051372464176122
mp-112,Y,41.3464303882066
mp-11272,Be2Nb3,165.0
mp-972309,Ta2BN3,217.0
mp-862728,Pm2ZnRu,80.0
mp-3216,Li2ZrN2,132.16890178438655
mp-30494,ScCd3,61.019947466055505
mp-7798,MgGeN2,147.03896491370315
mp-561511,FeAsS,142.73661089946242
mp-19080,Na2Mn3O7,77.18611013977444
mp-30336,Al4W,116.56436742082752
mp-13031,MgSe,44.0
mp-28266,P2Pd,108.67576516838643
mp-18924,Sr3(FeO3)2,108.75408016097383
mp-1013703,Ca3BiAs,24.0
mp-22312,Nb4FeSi,191.25803900567718
mp-203,NiTe,100.55492829955185
mp-569775,ZrAl3,100.28727869222419
mp-7569,KAsF6,17.249130199710883
mp-17287,TaTe4Ir,18.29137223093861
mp-861736,LiSbPd2,101.65950824740277
mp-675626,Cu3AsSe4,61.6506836193058
mp-1009006,LiCdAs,43.0
mp-1557,Mg3Au,57.36754693556095
mp-861658,LiMnPt2,113.67623799657854
mp-7422,Ca(CuP)2,86.0
mp-9583,K2ZnF4,44.0
mp-1029368,Mg2VN3,127.67455838932337
mp-13,Fe,182.45924080846518
mp-20147,ZrMnP,174.6230462508086
mp-546973,SrSnO3,144.0
mp-5014,CuAgS,41.818623742464325
mp-10394,CrCoGe,174.57386862132347
mp-25015,LiMn2O4,111.93874444238979
mp-1029,BaF2,54.429552743749255
mp-14476,LiRhO2,120.0
mp-971859,Zn3B,95.21158653997705
mp-760401,Nb3O7F,189.0793326632746
mp-11237,ScAg,82.13750116462273
mp-556075,SrDy2O4,114.0
mp-85,In,33.154748421362385
mp-23230,PCl3,0.819127079663521
mp-19284,NiAgO2,124.37306394344371
mp-3205,CaCO3,66.05765995851691
mp-867197,LiGaNi2,117.82620495095877
mp-375,UO3,150.26757075921395
mp-1008929,FeN,195.19418899976966
mp-2931,Li2TiO3,110.20712409151464
mp-24289,HPd,173.86766817474506
mp-754567,NaCdO2,71.48581014373079
mp-754988,KVO2,108.84900312125816
mp-11407,GaPt3,216.6240531966596
mp-19138,BaNiO3,85.0
mp-1029520,Mg2CrN3,122.59827786562359
mp-11239,ZrAg,105.84720298473442
mp-1959,PuO2,191.50431212632265
mp-1775,SnAu,71.91902795720907
mp-1025277,Pr2AlNO3,161.0
mp-4813,NbAlNi2,180.57861081236808
mp-505517,BaNb4O6,185.0776952261017
mp-7140,SiC,212.3817461777671
mp-30242,Mg4H2O5,79.34182183215627
mp-1024067,Na2ZnS2,30.0
mp-28630,Na3BN2,46.532595093187815
mp-22731,MnInNi2,132.52749470012068
mp-1143,Al2O3,231.87698875170878
mp-782,Te2Pd,52.66822448428749
mp-22872,SbCl3,1.7082612566425783
mp-29111,Al2Fe3Si4,172.38268252045222
mp-625,Mg3Ru2,107.49318046407394
mp-10030,RuC,337.72734937121743
mp-865591,Ti2NiMo,170.58658793234918
mp-31116,LaScO3,154.0
mvc-10966,FeO2,15.518599642953186
mp-755974,Na2CuO2,66.0
mp-24952,TbFeO3,174.98807745036862
mp-7947,PtO,185.9662737282912
mp-20128,Eu(MnAs)2,53.03511694145274
mp-570485,SrAlSiH,51.88329571880736
mp-13944,Li3AlN2,104.49318548645412
mp-14827,Li7NbN4,81.50731578924055
mp-10652,SmTe,60.0
mp-1572,GaSe,13.888316122153313
mp-775296,TiMnO4,165.4478905875032
mp-861983,Ti2MnFe,179.95828633955585
mp-978624,Sm2MgIr,73.0
mp-866117,HfZnAu2,137.0
mp-30461,BiPd2Pb,84.0
mp-10157,K,3.7922383385315763
mp-1058,PdF2,94.14558131722684
mp-998554,KAgCl3,32.0
mp-10037,AlCo3C,234.4545096535532
mp-21175,TaGaNi2,187.4070631425729
mp-862586,Re3Pd,296.68124300948415
mp-865717,Ti2ReIr,235.8975907579809
mp-3833,Mg(AlSi)2,63.99429923251646
mp-865588,Y2CuRu,92.57013715293378
mp-776678,FeO,124.9578974511183
mp-30952,GaCl3,1.3136306931686743
mp-20744,ZrInNi2,139.4696504635333
mp-365,MgB4,159.2201727527129
mp-432,NbRu,237.16643993626042
mp-20279,NbInSe2,44.0
mp-5159,LiGa2Pd,80.35515065661113
mp-861908,TaTiRu2,231.1248120908258
mp-10149,InSb,49.8700685205565
mp-754403,ZrO2,174.0
mp-4909,V2NiS4,101.43673748603224
mp-1919,ZrCr2,179.39833930522002
mp-22691,InSe,11.447638445522209
mp-30774,MgNi2Sn,114.0
mp-25587,LiNiO2,70.63441959259362
mp-6969,Sc(CuSi)2,120.0
mp-11038,Zr6Al2Fe,104.57139511181472
mp-2895,Mg2SiO4,119.27750289864343
mp-1941,GaNi,152.85097899727958
mp-13452,BePd2,166.3551880134797
mp-997182,C,115.03190534736895
mp-12725,NbAgO3,190.27186469032543
mp-3515,Y(CoB)2,145.60525618098006
mp-5146,Zn(RhO2)2,173.961478928745
mp-20192,HfMnSi,162.30966945047066
mp-5042,YTiGe,87.26802338860529
mp-18856,MoO3,32.980553825288155
mp-4699,NaTaO3,129.58075245390594
mp-972373,Tl,35.0
mp-691,SnSe,24.38851502573837
mp-631661,Y2FeB,81.0
mp-1016874,SiHgO3,219.50785789063275
mp-1008530,AlVFeCo,227.0
mp-2229,ZnO,172.0
mp-867800,AcSe3,55.88856156478561
mp-2173,P2O5,37.92537668068586
mp-11288,Ca3Hg2,30.379281718983087
mp-253,ScCo2,142.17341212490126
mp-763136,FeOF,132.6913260050968
mp-505820,NiPS,118.28353283376127
mp-570256,Ag2HgI4,14.024938131037676
mp-867794,Sc2CuIr,125.46671185301254
mp-30648,LiMg2Ga,41.56055788860917
mp-675568,Co2SbTe,119.5982969658882
mp-20622,SiPd3,160.83211706916381
mp-864857,NbZnCo2,184.99045095576358
mp-864897,Zr2CuOs,164.73823111909437
mp-10706,ZrRu3C,256.87425130227865
mp-30682,ZrGa,113.92811225310308
mp-24956,ErFeO3,177.50298526171972
mp-1056,Tb2O3,140.0
mp-1944,CoP3,148.90319263904462
mp-590,NiAs,133.79502965633284
mp-571163,MnSbRh2,162.55610344591102
mp-1018022,NbInS2,52.26394318919533
mp-549,ScSb,64.72998178183303
mp-849354,TiV3O8,167.6987940810703
mp-867255,LiZn2Au,82.87856121127413
mp-24409,PH4I,13.42254672222274
mp-753712,YIO,45.0
mp-670,NbCo2,231.0
mp-2574,ZrO2,168.6405188207634
mp-4789,PrRhO3,177.3971032827364
mp-20310,LiInSe2,30.23466734324073
mp-1408,MgHg,46.0
mp-614777,NiF3,51.32539969228424
mp-865521,LuI3,3.341967712552232
mp-30780,SrMgSn,35.90390109130038
mp-1029719,Ca3MoN3,56.09939236389741
mp-28736,Pr4RuI5,15.617410379617837
mvc-15431,MoO2,46.0
mp-754352,Na3CuO2,49.79329748267988
mp-976256,Li3Mg,20.0
mp-2339,Ti3Pt,166.4937822758696
mp-20952,TiNiSb,128.33464748766102
mp-862300,Sc2GaOs,124.73777400196552
mp-977424,Yb2ZnPb,40.0
mp-1025172,Ho(TiGa2)2,94.0
mp-7581,MoSe2,21.78482418958685
mp-973374,LiMg2,28.22007122420981
mp-505822,TiSiRu,191.49637148175896
mp-30819,LiAl2Pt,126.8755299090666
mp-18288,Ti(SnO2)2,64.12047488830945
mp-1658,Tl2O3,108.81595141135408
mp-774411,Li2VO2,111.96850369597065
mp-864650,Ta2OsW,272.3176985889336
mp-867922,ScAlRh2,163.36641394186663
mp-20521,ScInPt2,139.7869901564395
mp-765508,V3(O2F)2,109.0
mp-20335,MnNbP,228.0
mp-20757,MnAlGe,113.92276515721191
mp-1156,GaSb,44.653793860942926
mp-8861,Rb2MgF4,39.84795145821632
mp-540824,Mn2BiO5,127.56462276962499
mp-31053,Ag2S,12.0
mp-67,Sc,52.22816741916708
mp-25592,LiNiO2,110.29882883016107
mp-1873,ZnF2,98.0
mp-6914,CaGa,35.4714295616981
mp-568587,CrCuSe2,76.68325319959881
mp-691168,MnFeO3,164.0
mp-862369,Sc2IrRu,156.97497418085698
mp-685991,Li5SiP3,35.32574726994832
mp-2707,USb2,57.0
mp-680932,OsPbO3,159.70793625562578
mp-30684,Zr3Ga2,111.81671007024558
mp-758594,Li(Fe3P2)2,175.0
mp-865504,YAlAg2,84.0
mp-1008274,Co3W,271.549634585945
mp-542102,SrCoO3,134.21553449161036
mp-2062,LaSi2,77.53835498983369
mp-8871,CsNa2BO3,46.504288763775214
mp-1008753,Ti2Al,71.0
mp-22991,CsVI3,10.622609337990507
mp-866141,TiFe2Si,229.0
mp-978268,MgZn,50.62518933417561
mp-867897,ScTaRu2,205.34200375455123
mp-20943,TePb,40.43605216681216
mp-13203,ScCuSn,84.0
mp-840,SmRh2,140.0
mp-3576,HfGaCo2,174.28141672751278
mp-646507,Hf2Ni2Sn,141.76283723750646
mp-861501,AgHgPd2,118.05159039611864
mp-769726,Li3(FeO2)4,103.45347946820726
mp-761415,CuNi3O4,164.36045233894583
mp-553946,CoAsS,134.46274708439623
mp-12614,Ca2Cu,24.802372048674744
mp-1018030,Sr2SO,51.0
mp-850274,H2,8.0
mvc-8365,MgFe2O5,87.0243816611351
mp-3676,MgCu4Sn,100.27380717773745
mp-1672,CaS,57.06500426934821
mp-1169,ScCu,81.1563903562045
mp-20325,Ti3InC,144.96947844244534
mp-2192,BPt,261.7198742017304
mp-1009735,ReC,411.2882915974768
mp-3762,VCu3S4,39.0
mp-6947,SiO2,271.7202497671015
mp-561480,NaNiF3,73.77149255357385
mp-3813,Ba2ZrS4,56.0
mp-778712,LiFeF5,37.15780604620701
mp-82,Tl,26.380552461267825