mpid,formula,e_hull
mp-779881,Fe4OF7,0.057458928749996474
mvc-10821,Mg2TiNb2O8,0.0993434250183114
mp-850497,K2MnP4(HO2)8,0.0
mp-972077,TcGe3,0.40172660374999936
mp-7236,Ho,0.1392777150000004
mp-644223,LiBH4,0.046311776666665416
mp-768411,Dy2SiO5,0.0789189799999992
mp-30563,ZrCoSn,0.0
mp-607358,FeF3,0.004097778749999392
mp-779804,Li4Mn3Fe(BO3)4,0.003594404791667394
mvc-1331,BaMn4AlO7,0.18670447514422686
mp-1095977,Ba2LiCd,1.3378119675
mp-662605,Na2Si4O9,0.05849244261111153
mp-10061,ErBPd3,0.11263215945454608
mvc-5726,ZnCrAsO5,0.057353345624999726
mp-6049,Ba4Tb(RuO4)3,0.0003504004166687835
mp-974315,RuI,0.8730108350000005
mp-984682,Ce2MgAl,0.08302433520833308
mp-764083,Li8MnNi7O16,0.007075033593762825
mp-19385,YMnO3,0.0
mp-18352,HfTe3O8,0.0
mp-567229,LuAlSi,0.0
mp-998398,InSnBr3,0.01574643199999981
mp-1038258,Mg30AlSnO32,0.0969714507031254
mp-677010,YbTi2CdO6F,0.12094002630681724
mp-22349,Sm(FeGe)2,0.0
mp-1066577,NpPt,0.0
mp-696128,Li10Ge(PS6)2,0.03004285019999386
mvc-2946,Ba2MgV2CuF14,0.014136048500000163
mp-675134,Sr5Ti5O13,0.048861488405718134
mp-1080160,TeMoWS3,0.09966002250000017
mp-755798,ZrPbO3,0.03469552100000328
mvc-10529,PWO4,0.2634017647222056
mp-771446,Te3WO12,0.0349296312500007
mp-768484,Sb2(SO4)3,0.04783026911763777
mp-758156,Li3Sn3(PO4)4,0.07592740658653163
mp-172,Nd5Ge4,0.0
mp-27939,Er(PO3)3,0.0
mvc-10140,CaTi2(CuO4)2,0.1450146463461488
mp-995234,HCO,0.26535501553571805
mp-1079110,Hf3AlN,0.0
mp-849255,LiMn3(P3O10)2,0.06063571358332176
mp-581770,Sm4Al23Ni6,0.0
mp-758157,Na4H2RuN6O13,0.03836000973663545
mp-557176,Ba5B4(O5F)2,0.006298202380950357
mp-1073917,Mg6Si5,0.1940625706060608
mp-582856,EuZr6(PO4)9,0.0
mp-998543,CaTcO3,0.006428288000000393
mp-959,LaAl3,0.0
mp-641575,Cr21(WC3)2,0.0
mp-9487,USiAu,0.10928603427083416
mp-12523,YbPO4,0.020395950000000163
mp-865499,V2TcOs,0.0
mp-25144,DyVO3,0.0
mp-556863,Ba3AlF9,0.005851553750001237
mp-2824,AlPd2,0.0
mp-1078853,DyCdCu,0.005336857499999681
mp-762159,Mn11In25O48,0.0003308016865064545
mp-8781,SnS,0.0479587050000001
mp-775474,Li4Mn3Cu3(SnO8)2,0.040882396190470516
mp-780392,Li5Cu(PO4)2,0.030669059843750013
mp-610687,CeSnRu,0.0
mp-772458,Mn3Cr3(TeO8)2,0.06301350466796317
mp-29966,NOF,0.0
mp-560641,Ba12Cl5F19,0.015753427500002637
mp-570700,Hf3Tl2(CuSe4)2,0.0
mp-16919,Y2HfS5,0.01228753979166708
mp-32423,V6P7O24,0.023108997224532857
mp-1095057,VCo3,0.011814981666666393
mp-773224,LiY3WO8,0.07163534490384116
mp-773242,Li3V3CoO8,0.10046882133333844
mp-552131,CsClO2,0.27893619968750016
mp-556145,NaAsO2,0.0018848406249993843
mp-571583,CdI2,0.0010464658888891254
mp-19004,Sr8Fe8O23,0.0
mp-6984,K2SiAs2,0.0
mp-766021,KH(IO3)2,0.0033839928750012405
mp-561825,Sr2Mn3(BiO)2,0.18046396301333625
mp-769513,Li4Ti3Mn6O18,0.06344401809475997
mp-22851,NaCl,0.15359570499999986
mp-568954,Nd3CuGeSe7,0.0
mp-608162,K2CuPb(NO2)6,0.11549713305854592
mvc-13445,Mg(MnN)2,0.54165083741667
mp-554921,Hg(BiS2)2,0.0
mvc-1303,CaMnP2O7,0.022793621363526032
mp-608555,Cs2SnCl6,0.0
mp-775252,Li8Mn3Fe5(BO3)8,0.0020203878125011343
mp-14023,Na3Li3Sc2F12,0.0
mp-23636,Cs3Np(Cl2O)2,0.013614972600000108
mp-764064,Mn3(OF2)2,0.04737395972222469
mvc-6944,MoO2,0.28884161083333204
mp-1077378,CsMnP,0.018424700000000627
mp-22202,BaTm2CuO5,0.03828133013890156
mp-20196,NbTe4,0.013480265333332577
mp-782641,Na4V2P(CO4)4,0.08068606925921706
mp-556891,KFeF3,0.20263563599999745
mp-1035182,BaMg14CoO16,0.20646698270833408
mp-779456,Y2ReO5,0.0157877453333306
mp-561118,ZnS,0.0007013043750001557
mp-1016648,Mg6BMo,0.5284005609375004
mp-30168,H34C19,0.05552476408018858
mp-556509,UTiNb2O10,0.017486369821426706
mp-12958,BaSiO3,0.29489039366666425
mp-582028,Mn3RhN,0.08689119099999765
mp-699464,Ca3Be2Si3(HO6)2,0.0
mp-571324,CNCl,0.0
mp-571217,La3SiPd5,0.0
mp-1076675,SrCa3(Co2O5)2,0.016249311111126374
mp-565851,SrFe2(P2O7)2,0.0
mp-1097155,ZrScPt2,2.9911017137500013
mp-743698,Ca5Dy3Ti5Mn3O24,0.01990135340609278
mp-8972,K2TaCuSe4,0.0
mp-10746,Mg2Cu3Si,0.0
mvc-14333,VZnF5,0.037626644999997794
mp-767895,Li3FePCO7,0.04089823076922983
mp-637062,AsXe2F9,0.0
mp-766115,LiCrO2,0.03630272000000012
mp-771911,Ni3(PO4)2,0.03820453269231017
mp-17928,Ba(ErTe2)2,0.0
mp-997539,Li(CoO2)3,0.08343741250000569
mp-866199,AcAg,0.0
mp-1030307,Te2MoWSeS,0.09532572333333356
mp-1096666,Ba2AsBr,1.155343151078318
mp-780929,LiMnF4,0.023023943749989503
mp-1076984,Th2Au,0.0
mp-1028315,Mg14VSi,0.15896352677083314
mvc-8313,ZnCr4(CuO4)3,0.08749906925000328
mp-549869,K4CO4,0.19486282388888565
mp-24465,GaP3(HO5)2,0.0
mp-1079322,Hg2Br2N,0.5310514615240001
mp-1031808,Mg6SiNiO8,0.4328294360937504
mp-770302,Li24Mn5Cr7O36,0.013473509444442476
mp-30208,YCuP2,0.0
mp-580,PuB2,0.03978371385416324
mp-543017,Dy12(MnC3)5,0.0
mp-910209,Gd,0.0
mp-1034686,SrMg14SiO16,0.23753073531250024
mp-568318,KTaTe3,0.0
mp-7817,YB12,0.0
mp-1076222,KNa7V7MoO24,0.13400512337496995
mp-978805,SmLuHg2,0.0
mp-962077,TiAuCl,1.2308230672222198
mp-542433,Fe3O4,0.055245144642857014
mp-1075664,Mg5Si9,0.2024600638492049
mp-1001034,Mg(InSe2)2,0.039747924642857146
mp-1087553,CeSe2,0.539927642916668
mp-652781,Sr10Cu5Bi10O29,0.07192250328702697
mp-19544,RbMn4(AsO4)3,0.0
mp-766766,LiFePO4,0.05100709892857047
mp-504877,HoB7Mo3,0.0
mp-1100424,LiMgSb,0.1132542855555565
mp-600862,GdFeO3,0.0
mp-865859,LaYbCd2,0.0
mvc-3001,SrMgCr(PO4)2,0.01995757410715271
mp-775402,Li4(NiO2)7,0.026917651600006032
mp-560884,TaSCl7O,0.0
mp-561562,Co(AsO3)2,4.4759999999754996e-05
mp-1253,BaSe,0.0
mp-705009,K3VC5N5O,0.2772016520138889
mp-32089,Mo3(PO4)4,0.14998552326078318
mp-441,Rb2Te,0.0
mp-1073176,Mg2Si3,0.2014741360000003
mp-772393,NbFe(PO4)2,0.10226917401785583
mp-744674,KVH4O7,0.022615645192306744
mp-580364,HoCu5,0.0
mvc-793,CaMn4O6,0.038686784545461705
mp-1024963,TbCo2B2C,0.02393482208333264
mp-1097444,TiCdRh2,2.3101870731250007
mp-625652,H9BrO4,0.050171154285713726
mp-16358,ZnNi2Ge,0.0487599006250008
mp-764041,Na4NiO4,0.02594562969907521
mp-1075464,Mg5Si6,0.25304029717172005
mp-1021504,Ba2NbFeO6,0.0
mp-21493,U2Ga8Ru,0.0
mp-978850,Sm2ReC2,0.0
mp-1016213,Sn3H8C2NO7,0.3588361423452397
mp-690112,H(WO3)2,0.34514297902775937
mp-1093626,Cd2PtAu,1.4341891506944444
mp-554223,RbScAs2O7,0.0
mp-7435,KCuSe,0.0
mp-32443,V(PO3)3,0.010773707115383502
mp-867369,TcF3,0.3066971375000005
mp-573957,CsCu4Se3,0.004598807499999413
mp-766359,BaCaI4,0.08097154604166645
mp-764153,Li2CrP2O7,0.02499023447913995
mp-762958,Li6MnNi7O16,0.027685499000013717
mvc-13496,BiF5,0.19419001500000155
mp-777396,Li2Mn3FeO8,0.001820369940436884
mp-23201,BaBi3,0.015220245625002347
mp-775206,VSb3(PO4)6,0.011032843823529426
mp-21593,EuNb8O14,0.0
mp-862895,Er2ZnRu,0.0
mp-782708,V4(OF3)3,0.009921102187487207
mp-756213,Li8BiS6,0.06877573633333256
mp-761893,Li2Cu3F7,0.0603686447916667
mp-4034,LaTe2Se,0.0
mp-654249,Na2FeCuF7,0.006417733181818264
mp-565331,TbVO3,0.0
mp-554831,Yb4Cl6O,0.0
mp-764405,KFeH2S2O9,0.011849619833330216
mp-567145,Ba2Co2ClF7,0.0
mp-755615,Li3Ti4O8,0.062000429000013575
mp-743984,Li3Cr13Ni3(SO4)24,0.00953269557554126
mp-1078835,Sr2FeMoO6,0.0014177250000013686
mp-560521,Be(PO3)2,0.002602446388884516
mp-755071,SnO2,0.05695335333333418
mp-865838,LiSiRu2,0.0
mp-850465,Li3Mn2(P2O7)2,0.03380322385869583
mp-998897,YSb,0.3437151999999992
mp-27259,CsCrI3,0.05323680333333325
mp-1031884,Mg6TiNiO8,0.2742992423437469
mp-780890,LiMn2P4H11O18,0.04314469392360998
mp-8215,LaYbS3,0.2298320764999984
mp-1080855,CeSe2,0.5438840497916679
mp-982773,Na3Tl,0.0
mp-1095125,LuNiGe2,0.032567991875000146
mp-772180,LuScO3,0.040147993750000666
mp-540546,Er3Ni2,0.006088148999999986
mp-5447,Sm3OsO7,0.0038282868181784852
mp-662609,Ce3(Si3Pd10)2,0.1582800927126442
mp-769908,Li2Mn3CoO8,0.03521267865433142
mp-24090,BaH4(IO)2,0.0019224529166663726
mp-565804,AlMoP2O9,0.0
mp-17974,Na3Hg2,0.00042300220000024414
mp-13549,CeZnAu,0.0
mp-1094631,Mg5Ga,0.060582534166667035
mp-10798,HgSeO3,0.005329040499999493
mp-12221,CaTeO4,0.0
mp-29211,V4Cu3S8,0.08620525666666623
mvc-10451,MgCr4O9,0.26618014553570823
mvc-3929,Si3(MoO6)2,0.17784089558823268
mp-773513,Er2(WO4)3,0.0470750789705896
mp-632442,Al4C3,0.4069901214285734
mp-9789,CaPS3,0.0
mp-18043,Sr6YSc(BO3)6,0.0
mp-1075515,Mg5Si6,0.1977253558080836
mp-574070,Cs4Pb9,0.0
mp-10608,Y3SnC,0.0
mp-643575,CoH12(BrO7)2,0.01698455454741321
mp-569564,Th2Al2C3,0.0
mp-1094079,PAuS,0.08210936561594108
mp-677563,ZnCuHg4As7S12,0.12825719979999928
mp-31602,LiCo2(PO4)3,0.09204585409724332
mvc-14277,AlNiO3,0.18270743895833075
mp-780209,Fe6O11F,0.11826600524304798
mp-690546,TiNiO3,0.017028583333338787
mp-1006613,Na2Al2(SiO4)3,0.2358073562171059
mp-6920,KNO3,0.0037311655000005217
mp-1079297,Si,0.07142513124999983
mp-1030153,Te4MoW3S4,0.0894102889583337
mp-542475,CsFe2S3,0.0
mp-1005789,Sm2(Ga3Co)3,0.0
mp-542071,Co(NO3)2,0.0
mp-30773,MgNi2Sb,0.07207917312500013
mp-756090,BaNa4O3,0.09398902562499778
mp-567982,TaSn2,0.0
mp-1094168,LaMg2,0.07982905000000029
mp-850238,V9O22,0.04004184645161502
mp-765616,LiVTe(WO6)2,0.045174923970590974
mp-763682,Li(FeO2)3,0.12237590387499965
mp-4974,La2Zr2O7,0.0
mp-975059,MnTl3,0.3993392112500001
mvc-4989,Mn2ZnO4,0.07221380839286429
mp-556874,La6Mo8O33,0.001143799255320488
mp-29165,Li3Si3Ag2,0.1255330359895832
mp-981385,Sc3P,0.33549080437500045
mp-779852,LiMnB3(HO3)3,0.08925929037895752
mp-11906,LiPr2IrO6,0.0
mp-996953,CuHO2,0.022134285312500168
mp-541141,K3IrCl6,0.0
mp-12564,LiSbAu,0.06697560818181758
mvc-9216,Mn(GeO3)2,0.11172601472222876
mp-23353,Cu2HgI4,0.0
mp-767709,Li2Mn3Si3O10,0.016299657638890963
mp-541994,MnNb3O6,0.0195724464285707
mp-699475,CaB12(H3O2)4,0.8495682679393965
mp-13910,Ba(AgGe)2,0.0
mp-568745,Rb2Te,0.05625092166666601
mp-647987,RbBiC4(SN)4,0.1563057144537252
mp-781051,Li5V2Ni3O10,0.0865444492083336
mp-715582,W3O8,0.022372690069937917
mp-1072992,Mg2Si3,0.25717271211111026
mp-24302,CdAs2HF13,0.0
mp-5611,BaUO4,0.0
mp-1076893,Ba2Sr6Co5Cu3O20,0.06327158335316962
mp-1037288,Mg30CrCuO32,0.026457032968750127
mp-1080291,CeSe2,0.5328240370833344
mp-1099063,Mg14MnCuO16,0.030221965625000458
mp-980386,Yb2Nd2O5,0.6118221358333331
mp-769558,LiMn(CO3)2,0.012795454874996892
mp-561078,Rb2CoF6,0.0
mp-778757,Na2CoO3,0.008474901397064194
mp-776049,V3Fe2Cu(PO4)6,0.04496719666666493
mp-6847,KY2Ti2S2O5,0.03134200416674382
mp-3075,TlGeS2,0.0
mp-770652,LiCr3O9,0.05254018480769318
mp-1066445,AlVCo2,0.0015541824999996125
mp-540344,Li3V(PO4)2,0.028813121249998908
mp-770959,Ba3GeO5,0.02546984972222255
mp-1028081,YMg14Zn,0.05177230124999799
mp-849709,Li4Ti3V2Cu3O16,0.10054981077381164
mp-1098411,LiMg30WO32,0.02368526591796893
mp-686204,K3Ba2Pr2(BiO5)3,0.04510170249143641
mp-4353,TbAl4Ni,0.0
mp-23303,RbBr,0.055207574999999835
mp-1084844,ErSiAg,0.0
mp-557441,KAu(IO3)4,0.0
mp-560851,CsIOF4,0.0
mp-865116,LiSmTl2,0.0
mp-1030657,NaNbN2,0.0
mp-621366,Cs2KFeF6,0.0
mp-1071028,LaAsIr,0.009658301666669368
mp-555476,Na3OsO5,0.0
mp-23011,RbClO3,0.03470451249999673
mp-634867,TiF3,1.4759082425
mp-777855,Li4NbFe3Cu2(PO4)6,0.09980230037499016
mp-849636,SrTaNO2,0.00345836299998048
mp-570044,NbI4,0.0
mp-1097433,MgAg2Hg,0.9563061924999998
mp-24650,YH2,0.0
mp-770615,Li2CrO2,0.11209921433333214
mp-569349,Rb2HgPSe5,0.0
mp-1078709,Na2BiAu,0.0
mp-35785,Y2CdS4,0.0
mp-760120,Cu3(OF)2,0.05066150374999978
mp-1022384,HfMg6Zr,0.14197527374999952
mp-541599,La3Co3O8,0.036818223928571925
mp-779106,Li32Mn11Cr5O48,0.008223002604162309
mp-1035113,LiMg14GaO16,0.02751910656250001
mp-1097607,LiBeCu2,1.73605907875
mp-384,MgP4,0.0
mp-10611,La3PbC,0.0
mp-568208,IrCl3,0.001964264375000191
mp-680152,CdI2,0.001527637333333276
mp-772619,Li8Te2O9,0.04723407789473999
mp-3901,NdNbO4,0.0
mvc-357,Sr2YMn2AlO7,0.060709683285251614
mp-765269,Mn2F7,0.06073551032407565
mp-1040052,LiMg30GaO32,0.01039681796875147
mp-1079262,Pt(NCl)2,1.7955122707146662
mp-769321,ZnSeO4,0.0954561666666578
mp-769567,Li10Ti11Cr9O40,0.0
mp-8974,Ba3Dy4O9,0.000874768749999255
mp-1096494,LiSc2Tl,2.223490681499999
mp-865146,MgAsPt5,0.0
mp-1018012,TiFeCoGe,0.02582539249999893
mp-780744,Fe3O5F,0.11554513486111072
mp-3756,SmTaO4,0.0047786616666680715
mp-631479,CaHfBe,0.8220696359999993
mp-561242,TaAgS3,0.00017057599999503736
mp-23927,TiH12(NF2)4,0.06532840173972865
mp-1074259,Mg4Si3,0.18164972587301745
mp-13682,PdS2,0.0
mp-652550,Er5Si3C,0.07360324525340989
mp-24335,YH5(SeO4)2,0.0
mp-1079970,Se(Br3O)2,1.2228087312500002
mp-770360,Li2AlVO4,0.08795370656250245
mp-556027,SiO2,0.5238422572222214
mp-780420,Lu4Al2O9,0.03269019474999979
mp-753716,BaCa2I6,0.0964657529166666
mp-765751,Mn2O3F,0.06517510562499408
mvc-12659,Zn(FeO2)2,0.5276603135714293
mp-14011,Al(PO3)3,0.009721994038462078
mvc-16070,Ca3SbN,1.6860948399999995
mp-1019517,Ba4Mg(SiN3)2,0.0
mp-505225,UPO5,0.0
mp-568559,YbAg2,0.0
mp-764980,LiMnF5,0.033267639791673353
mp-556782,Gd3CuSnS7,0.0
mp-771844,Mn3VO8,0.09466747093749817
mp-39938,K2Re3CS5N,0.0
mp-30447,Sr9Cd4Bi9,0.0
mp-4068,Na2GeS3,0.0
mp-1060401,CoNi,0.30551403499999896
mp-707517,RbUP2H8O11,0.17243947223396014
mp-21873,NiAs2,0.014370820833333298
mp-561018,Na3Sc2(BO3)3,0.0
mp-1095255,Ba3ThSe7,0.0
mp-1097330,SrTl2In,1.369698418125
mp-761334,LiVPO4,0.06437932906926047
mp-1031098,LiHfMg6O7,0.2063257773333325
mp-690789,K3ReH6,0.1829489827142856
mp-757911,MgAl10O16,0.02114517037037178
mp-1096375,Ti2NbIr,3.879495790416666
mp-28562,RbAsSe2,0.0
mp-1096379,AlNiRh2,3.0893103750000006
mp-17698,K6CdTe4,0.0
mvc-9991,CaMn2O4,0.094989727857131
mp-616544,RbCr3S5,0.0
mp-763327,LiMnF3,0.09919816599999898
mp-558603,K2Si4O9,0.0
mp-541819,Rb2Hg(BSe)9,0.0
mp-11157,SmMgGa,0.0
mp-764247,Na3(NiO2)5,0.00548811404039995
mvc-6101,Ca(CuO2)2,0.0
mp-1099121,Mg14MnSnO16,0.11298202359375152
mp-559151,BaSrTa2O7,0.0
mp-766674,Li3V3P8O29,0.04816377212209666
mp-542975,VBiPbO5,0.01820498937499959
mvc-12012,Co(SiO3)2,0.17829870583332766
mp-20186,PrRuO3,0.07826229009999963
mp-1076189,Ba3Sr(Cu2O5)2,0.09509099312505853
mp-623,HgPt,0.1073141512500002
mp-759823,LiCuPO4,0.08562630476190591
mp-558607,K3BSb4O13,0.0
mp-767946,Mn2V3Sb(PO4)6,0.02499633055554895
mp-10889,La3Al,0.026565938125000518
mp-1019518,Ba2CaSi4(BO7)2,0.0
mp-1018636,SnPd3C,0.5334107985000003
mp-22083,Tb7O12,0.0565160103947342
mp-1028583,Te6MoW3Se2,0.03632736958333371
mp-31581,LiCo(PO3)4,0.02482633805555512
mp-1023481,Mg6MnAl,0.16155707750000034
mp-565570,Sr9TmV7O28,0.0
mp-1019531,BaAl2Si3(NO)4,0.0
mp-1095505,Ti3GeC2,0.0
mp-1021959,KMg6Ni,0.3337602550000001
mp-20799,Er2ReC2,0.0
mp-1025629,Te6Mo2W,0.010238765833334721
mp-1521,Sb7Mo3,0.0
mp-1075013,Mg3Si4,0.2308181704761898
mp-1078538,FeSe,0.19429255624999967
mp-22660,InAgO2,0.0005986849999999322
mp-763873,Li2Ni(CO3)2,0.06305084772727643
mp-15492,DyTa7O19,0.00367581259259353
mp-13288,Ba3LiN,0.021040220333333533
mp-15078,SiO2,0.011638683148147422
mp-774742,Li3Sc2(PO4)3,0.001180159499998723
mp-1077831,EuScGe,0.0394672086666672
mp-781111,Li8Mn7Nb(PO4)12,0.01876404453945746
mp-19342,WO3,0.0
mp-778509,LiVF3,0.07119010899999711
mp-977406,Ho2AlOs,0.0
mp-10113,ScBIr3,0.0
mp-1080386,PrSiPt,0.0
mp-766925,LiVF5,0.06083930571429087
mp-765533,NaV3O6,0.1022296416250299
mp-686308,Na6Ga5Si7H15O32,0.14260570510256532
mp-19614,KMn4(PO4)3,0.0
mp-21220,CaIn4Rh,0.0
mp-631558,Hf2BiB,1.464266680624999
mp-777046,Li4Ti5Co3O16,0.06464516232141282
mp-28232,MgTi2O5,0.0
mp-772432,FeH4(SO5)2,0.05742272626225198
mp-977354,HoTaOs2,0.0
mp-1036805,BaMg30VO32,0.09021076027343787
mp-567932,LaMg4Cu,0.001550330555557533
mp-769773,Li3CrClO4,0.023597656481480368
mp-569901,Ge23Mo13,0.036854404111111634
mp-626799,ReH3O5,0.0
mp-1094559,LiMg2,0.04794929833333162
mp-976129,PrErZn2,0.017357867500000346
mp-770170,Li3V3(BO5)2,0.06634468666667903
mp-1080419,SmBi2Au,0.0
mp-1015026,CrN2,0.4061319917066655
mp-762978,LiCoSiO4,0.05976724992855775
mp-865689,Y11In9Ni4,0.0
mp-752670,Li3FeS3,0.16362042642857144
mp-743530,KCrH24(SO10)2,0.011098711979164122
mp-1074195,Mg4Si7,0.2661664231818177
mp-778593,Li4V2Fe3Co3O16,0.0892913570773759
mp-722963,CuH20S2(NO7)2,0.2821067003012052
mp-22126,U2S3,0.0
mp-769261,Na6Sn2C4SO16,0.0220384336206898
mp-555837,Rb6Si10O23,0.005187701538461376
mp-977437,HoZrOs2,0.0
mp-9159,Li4NpO5,0.0
mp-676361,Li3ErCl6,0.0
mvc-8371,Co(GeO3)2,0.15511608916666475
mp-556861,LiY(PO3)4,0.004919797962959826
mp-978854,Sr(GaH)2,0.0
mp-560423,KBS4(ClO3)4,0.0
mp-1092248,TbInPt2,0.0
mp-675964,Li5GeAs3,0.023382840385801185
mp-971966,Zn3Sb,0.18167191781250014
mp-10973,K2Ga3CuSe6,0.0
mp-565639,CrHg3O5,0.04858876129629586
mp-770968,Na3NiPCO7,0.0
mp-862599,LiErAu2,0.001511734999999792
mp-13955,SmSi2,0.0
mvc-3925,Ca3Si3(MoO6)2,0.0
mp-866651,KSiBiS4,0.0
mp-561489,AgTeO3,0.019716077499996487
mp-3941,LiYF4,0.019087590000006927
mp-778911,Li4Mn3Fe(BO3)4,0.005379312708334361
mp-780656,Na2BiO3,0.0006192141666998553
mp-776059,Ti3NbCo2(PO4)6,0.054850996041658114
mp-1068053,Ca2AgPd2,0.0
mp-849470,Li7Co(O2F)2,0.09514369080356566
mp-1025267,Cs2CaBr4,0.0
mp-19621,NaVAsO5,0.0
mp-4077,Cd(CN)2,0.2817452265
mp-1014231,Hf2Zn,0.0
mp-779057,Li2Fe2B2O7,0.06000536980769056
mp-16480,Al3Au8,0.0
mvc-1728,Ba2CaCuAg2F14,0.014060436666668785
mp-1031871,Mg6TiMnO8,0.17707885290874348
mp-772883,Ba6Sr11I34,0.07863047980392146
mp-1007755,HfAu,0.0
mp-4743,ErTiGe,0.0
mp-755461,Dy3TaO7,0.023770995454542643
mp-775385,Li5V3P8O29,0.03533452368516965
mp-998560,InSnCl3,0.020177516999999142
mp-675519,Tl3In7Se10,0.033539231000000225
mp-773926,VFe(PO4)2,0.05184651145834174
mp-542760,FeP(H2O3)2,0.002283369166668159
mp-778041,Li9Mn7(PO4)12,0.04149856338816349
mp-9077,Nd2Be2SiO7,0.0
mp-775340,Li2Cr(Si2O5)3,0.07664565025462178
mp-1065463,NaCrSe2,0.00015741499999943898
mp-767827,Li3SiNiO5,0.04439135450000009
mp-764055,LiCo5O7F,0.06286839437499925
mp-753898,LaTmO2,0.08576419640624877
mp-1087555,CeSe2,0.8052221370833346
mvc-5310,VO2,0.13965150749999822
mp-4897,ScSnPd2,0.0
mp-1028590,Te2W2SeS,0.07402053791666674
mp-1072130,HoCo2,0.0
mp-763602,Li13Mn8O24,0.06009754423611025
mp-1030964,KMg6CO8,0.6826650876171847
mp-771803,LiNbFeO4,0.0
mp-1510,Nd2Fe17,0.03651219815789375
mp-17323,TbCu(BO2)5,0.01787952476716015
mp-774358,Li2MnV(P2O7)2,0.003971945776563679
mp-505297,NbSbRu,0.0
mp-8623,K2Te2Pt,0.0
mp-867859,Sm2IrRu,0.0
mp-625551,Mo(HO2)2,0.13835229482142708
mp-771925,Li4Cr3Fe3(SbO8)2,0.0603677124107147
mp-21660,HfGa2Co,0.0
mp-571433,NaB(CN)4,0.3725526973333349
mp-771284,Li24Ti7Cr5O36,0.012381179027789456
mp-505190,TbCu(WO4)2,0.04153013479166745
mp-569486,Yb2Ag7,0.0
mp-779689,H3N,0.022294969375000303
mp-14336,Cs2Ni3Se4,0.0
mp-1017548,Ca(BeP)2,0.0
mp-31985,Li2Mn3(P2O7)2,0.007296144184781639
mp-1079021,YbCeS3,0.03321126300000365
mp-1040205,KMg30BO32,0.10174370437500002
mp-754046,PrTlO3,0.6479241892500003
mp-1027925,Mg14ZrNi,0.10658743531250003
mp-765722,Li4Mn3NiO8,0.01877543727678344
mp-1028218,NaMg14Al,0.04036475146634634
mp-29502,Al2Te3,0.0
mp-707373,MgH12(ClO5)2,0.03415315929999707
mp-997524,Mn3Co2Sn(PO4)6,0.05864352371527293
mp-1040321,Mg30TiCdO32,0.07597756113281663
mp-27205,TlCl2,0.0
mp-705482,Ba3La3Mn2(WO6)3,0.11185473881465492
mp-561622,Cs2AgAsS4,0.0
mp-27517,Rb2CoI4,0.0
mp-775457,Cr(PO3)2,0.021592745122239517
mp-743953,Ca2La8Ti5Cr5O30,0.040236852350002295
mp-4471,ScAlO3,0.02812385937500572
mp-770247,Li4Ti2V3Ni3O16,0.06609269860118783
mp-775302,Li2Cr(Si2O5)3,0.04338401587962082
mp-31661,LiCr2P3O11,0.047730404411760574
mp-39091,Co2CuO4,0.07267383833333785
mp-21378,HoMnGe,0.07889572416667258
mp-775508,Li4Mn3Cu2Sn3O16,0.10857467154760414
mp-9459,Y4C5,0.0
mp-628549,Pr(WO3)5,0.2031054962957892
mp-542573,ThB4,0.0
mp-567291,Gd3OsO7,0.0
mp-1074730,Mg2Si,0.1648335061666688
mp-578629,BaIn2O4,0.013879368392859526
mp-619791,La5C2Cl9,0.0
mvc-12090,Al5(BiS4)3,0.18143220664583293
mp-541436,NbTl(PO4)2,0.0023282361458356604
mp-779358,Na3VO4,0.047727545468750236
mp-1026976,TeMoWSe2S,0.07887582999999943
mp-1098589,HfMg30WO32,0.16922151972656252
mp-2884,Cs2Mn3S4,0.00360321722221979
mp-18786,Ca2CoSi2O7,0.01788783416666373
mp-1028416,TeMoWSe2S,0.06313778999999986
mp-25508,Li2CrPO4F,0.03927265435185402
mp-680462,SiC4(SN)4,0.10867792365857196
mp-1095925,BaCaMg2,1.4863669162500002
mp-765878,Li2NiP3O10,0.08164500550781284
mp-28833,Er7Ru2C11,0.010984532724998886
mp-779909,V6O7F5,0.024635055555570773
mp-31278,Ca3(Bi2Pd)4,0.0
mvc-13097,YTi2O4,0.24424735857143176
mp-570483,V5Si3,0.05456864000000117
mp-24172,H2SO4,0.003901559642854657
mp-684108,Li2Ti(PO3)5,0.054008109458595584
mp-705670,V2Cu2O7,0.20939576181818165