mpid,formula,e_hull
mp-1074066,Mg9Si5,0.16311873964285706
mp-561853,Co2GeO4,0.08347118626050509
mp-558026,SbSe(IF2)3,0.0
mp-27823,SmClO,0.0
mp-1028046,LaYMg14,0.07278054671874967
mp-555212,Ba2InBrO3,0.0
mp-148,Ge,0.2401346787500005
mp-991900,AlCrFe2,0.017392145000000525
mvc-8978,MgSn3O7,0.206818390227272
mp-1080729,CePRu2C,0.0
mp-1016316,LaMg7,0.10351733710227308
mp-31275,Ba(TeP2)2,0.0
mp-1075966,Sr2Ca2Fe3CoO12,0.048460723749932384
mp-561468,Cu2SiS3,0.13408038222222096
mp-546125,ScAsO4,0.0
mp-764352,Li3Mn3OF7,0.06331081428571482
mp-39288,BaLaMgNbO6,0.09041041033333386
mp-554166,V3ZnO8,0.013426639999979171
mp-1080106,Ge,0.14382489250000052
mp-774335,Sn2P2O7,0.04751343113635098
mp-770639,Y2W2O9,0.025441198846161583
mp-761414,Al19CrO30,0.0038628602499954923
mp-15777,Zn(GaTe2)2,0.0
mp-1098737,YMg30MnO32,0.0650050252268759
mp-768878,CuReO4,0.021658614513888168
mp-3264,Th(NiGe)2,0.0
mp-974062,KTm,0.5511333499999997
mp-647985,V(CO)6,0.5590677421634656
mp-28963,Ag8S,0.2645976583333329
mp-9619,Th(FeP3)4,0.0
mp-531170,Tl4SnSe3,0.0
mp-13603,CdB4O7,0.0
mp-9387,TbCuGe,0.0
mp-762412,Li2Mn3O6,0.03614725982953537
mp-18490,Sr2SmNb(CuO4)2,0.017764162455359056
mp-555005,Na3Mg2P5O16,0.0
mp-698580,Co7Re17O48,0.07128148222222919
mp-1063045,LaHg2,0.011121973333333646
mp-1086,TaC,0.0
mp-566672,Ca9Fe(PO4)7,0.0
mp-1098229,Mg6VC,0.33863100678819524
mp-770645,Li8HfO6,0.06362203933333442
mvc-13426,Ca(CuN)2,0.5512913320000017
mvc-16746,MgTi2O4,0.10099086214285613
mp-763125,Li4V2Co3Ni3O16,0.08233992139880897
mp-777427,Li4Mn2V3Sn3O16,0.058695872008933676
mp-1098395,LiCeMg30O32,0.04068610275390672
mp-705415,BaNdNiSbO6,0.05303933139999906
mp-31029,Nd2Ni5B4,0.0
mp-635327,NaY2In,0.4978011987500004
mp-1096737,ZrInCo2,2.6445100426176578
mp-643446,Ca2AlH8S2Cl(O6F)2,0.0011631958928584039
mp-759653,LiBi2PO6,0.06090491722221359
mp-1094417,MgTi,0.15095537083333355
mp-558548,Na3B6NO13,0.0
mvc-680,YNi(WO4)2,0.12983939104166708
mp-31117,NdScO3,0.0
mp-1078401,LaBi2Au,0.0
mp-11356,La3Co2Sn7,0.0
mvc-15365,Zn(WN)2,0.5960853450000005
mvc-16244,Mn3Al2(SiO4)3,0.00719140954999098
mp-697168,MgH6(NCl)2,0.0
mp-978953,SrAcTl2,0.0
mp-754604,BaBePO4F,0.0
mp-769561,Li4Mn3Fe3(NiO8)2,0.06540022676339152
mvc-2643,ZnW5O7,0.9710684511538564
mp-753831,Cu2OF2,0.06969999066666954
mp-675895,La3Fe2S7,0.10894555270833364
mp-777244,Li2Ti2MnCr2(PO4)6,0.012716708108227335
mp-698301,ZnH6C2(SO3)2,0.26046803211134506
mp-767268,LiV9O22,0.04693834921879514
mp-1079073,Pb2CO6,0.5818773547222236
mp-7238,NdBO3,0.007949883000000213
mp-568950,Na3AlH6,0.013233417999999995
mp-780893,Na6V2O7,0.07556551833332481
mp-5547,Mg2B2O5,0.0003009577777746132
mp-861915,LiDy2Ir,0.0
mp-556168,Na7Al3O8,0.0
mp-1095547,ZrTi2Ni9,0.01961033916665844
mp-1064265,MnSe,0.5703540224999992
mp-24082,Ta2H,0.0
mp-865305,UO2,0.146256823333335
mp-605091,VSnH9(CO)3,0.16232487147058805
mvc-6590,TiO2,0.03681145583334633
mp-554828,Na2Be(GeO3)2,0.0
mp-5588,BaSiF6,0.0
mp-2949,Ca(NiGe)2,0.0
mp-634812,H2O,0.06698365416667418
mp-7851,TaCo3,0.0009273608333355556
mp-850773,Li2Mn3(BO3)3,0.07821823936272665
mp-30198,Ba4Ga2O7,0.0
mp-971754,V2ReW,0.0
mp-561894,Ba2CoMoO6,0.05368443816667323
mp-569903,CsEr(NbBr3)6,0.0
mvc-5011,Ca2BiWO6,0.08598023633333353
mvc-947,BaCa(NiO2)4,0.17100440428571062
mp-1006277,CeGa4Co9,0.013578832499997695
mp-556489,Ta2SnO6,0.0
mp-1078181,SiBr3,0.003857512500000215
mp-771373,Li6FeCo3(PO4)6,0.05540087259374271
mp-867831,DyMgRh2,0.0
mp-769766,Li3CrO4,0.07476974624999855
mp-434,SrAu2,0.0
mp-643245,K3MnH5,0.015436466973333562
mvc-14507,MgFe(SiO3)2,0.0
mp-1098960,Mg30VBiO32,0.0996118036653657
mvc-10565,Ba2Mg3Tl2(CuO3)4,0.15422169293478485
mp-557730,Dy(PO3)3,0.0075220238461515265
mp-4242,U3(CuGe)4,0.0
mvc-9513,CaTi2O4,0.11634741041666885
mp-765885,Mn(CoO3)2,0.026774458611106056
mp-541194,Fe(SbO3)2,0.0
mp-754531,Al2O3,0.07660752000000047
mp-21234,EuZnSi,0.0
mp-699261,CdH16C4S4(N4Cl)2,0.033497196371437
mp-1094408,YMg2,0.11148060750000033
mp-778973,Zn(NO3)2,0.0064455148610989
mp-20703,Dy3Co6Sn5,0.017647548035717442
mp-1094885,Ce5Mg,0.10305847111111087
mp-2284,AgF2,0.008359568333329292
mp-20834,CeSnPt,0.0
mp-765891,LiNi5O5F,0.062301974999999565
mp-1075025,Mg3Si4,0.26150227714285723
mp-24488,NaZn2H3(SO4)2,0.07055133871093755
mvc-12561,Zn(NiO2)2,0.1297569632142821
mvc-10897,Ca2CoWO6,0.0
mp-763902,Mn3OF5,0.038816856250011966
mp-6525,NaSn2(PO4)3,0.0
mp-776213,Hf2N2O,0.004809713999993193
mp-23149,K4Al3Si3ClO12,0.0
mp-766108,Ba3LiTi5(SbO7)3,0.0299651824242444
mp-768539,AlTlO3,0.07503269424999992
mp-757594,Os(OF2)2,0.0
mp-764127,Cr4OF11,0.033433699244787014
mp-862378,Sc2TcAu,0.0
mp-21460,CeIn2Pd,0.02271503187500201
mp-22739,BaFe2S3,0.05677983833333133
mp-780428,Na4Bi2O5,0.08791486545453964
mvc-2131,Ca(WO3)2,0.057591300000025214
mp-24940,Cd(FeO2)2,0.0
mp-853262,Fe10O9F11,0.06509843033333418
mp-865088,MnGaIr2,0.0
mp-1361,IrSe2,0.0
mp-21165,PdSe,0.00010430916666681612
mvc-2261,AlCu3(MoO3)4,0.3366697019999956
mp-17908,Ba2TiS4,0.0
mp-642535,Cs4Sb14S23,0.0
mp-30358,TbAg2,0.0
mp-977576,NdZnAu2,0.0399299694715336
mp-16335,Ti3FeS6,0.06589996335714421
mp-567959,Sr11Ga4Sn3,0.002635320456349177
mp-27691,K2PtBr6,0.0
mp-767097,LiVSiO4,0.08617835794642659
mp-975373,RbNiO3,0.3793694679999993
mp-770488,CoPbO3,0.18398624050000306
mp-30828,Sr2Pb,0.0
mp-1037298,Mg30FeCuO32,0.01897397718749972
mp-756646,SrLu2O4,0.009694278928570554
mp-5082,Nd2Si3Rh,0.0
mp-770996,Cs2CeO3,0.06324675666666922
mp-779498,Ba3(ClO)2,0.04699317809523418
mp-1028270,Mg14SiSn,0.0510403056875004
mp-1029826,Li6OsN4,0.0
mp-581584,Cs2U(SiO4)2,0.0
mvc-3036,Ba2Mg2Tl2Co3O10,0.17066948421052786
mp-738697,Al3P4H18C3N3O16,0.025435476800691248
mp-1035836,KMg14BO15,0.2576245035483886
mp-19274,BaPrMn2O6,0.02061958883330206
mp-707175,BeH6(NF2)2,0.08471736476043201
mp-566173,Ba3V2(PO5)3,0.0042446103261237775
mp-13346,CsUAgS3,0.0
mp-25497,KCrClO3,0.08639383734374828
mp-768060,VOF,0.05645742000000097
mp-772981,Li2Zn3(Ge3O8)2,0.0
mp-765830,Li3VF5,0.07520778777777792
mp-767255,Li10Cr(SiO5)2,0.09251147376811544
mp-25511,CsCrH18N6(ClO2)4,0.3661677576228355
mp-983426,PmDyCu2,0.005466651875000394
mp-1098654,Mg30NbAlO32,0.09135849622070323
mp-12362,AgHg3SbO6,0.004407072840908022
mp-680116,CdI2,0.0014425666507937864
mp-770108,Na2NiCSO7,0.036987960833335436
mp-866167,GdCdAu2,0.0
mp-1860,LaSi,0.013365897499999946
mp-1075035,Mg3Si4,0.18486562476190427
mp-213,CaPd,0.0
mp-24805,LaNiSnH2,0.0
mp-1019550,BeGeN2,0.0
mp-31778,LiFe2(PO4)3,0.06533521604167447
mp-1977,NdSn3,0.0
mp-1030245,Ca3ReN4,0.0
mp-19123,Rb2LiVO4,0.0
mp-554218,Ti4P6PbO24,0.0
mp-721303,LiBeH5(NF2)2,0.08098262971769099
mp-764901,Li3Ni3O3F5,0.0769890388988097
mp-8601,Te4Mo3,0.0
mp-645545,Nb2FeO6,0.0997322583333382
mp-559385,SrHo2O4,0.0010785453571440227
mp-561164,K3(MoO3)10,0.017864461345519445
mp-764281,Li5Ti2Co3O10,0.03660791399999575
mp-1022627,YMg6Cr,0.19038031500000008
mp-556867,K2PrZr(PO4)3,0.0
mp-1095233,LuMnSi,0.001849298333333137
mp-12764,SmC2,0.023747977499996686
mvc-5870,Ca2VWO6,0.05160938093749756
mp-1080388,PuPt5,0.013180678333335472
mp-569173,TlAu(CN)2,0.15926965547138838
mp-1094277,Zr2Sn,0.25470523916666643
mp-13140,BaLiGe2,0.0
mp-224,WS2,0.0
mp-30913,ErCoSn2,0.07156086479166658
mp-17123,Si2Os,0.0
mp-22480,GdScSi,0.0
mp-689442,InCu(WO4)2,0.0373209239583332
mp-3652,Ta9(FeS3)2,0.0
mp-1405,TbGe,0.0
mp-530850,Ta2CuO6,0.029705485138899587
mp-1036209,Mg14TiMnO16,0.0898474630168753
mp-754041,Gd2HfO5,0.005331794062499284
mp-569225,Mo6PbI14,0.0
mp-624249,Zn(C2N3)2,0.1138068479981813
mp-1129,ScIr,0.0
mp-19548,CaMn2Be3(SiO4)3,0.0
mvc-6205,Zn(NiO2)2,0.1182849208928527
mp-768961,YB5O9,0.00044182244444712637
mp-1095679,Cu2BrO3,0.14031066166666406
mp-999266,ReN,0.3721501858333358
mp-649524,K3Fe2(PO4)3,0.0
mp-1095623,AlHg3(OF3)2,0.020827793697915983
mp-849524,LiFe3O3F4,0.09614977373737156
mp-555464,KRb2NiF6,0.013941799000000366
mp-698218,LaH13C3S3O11,0.10602359298963204
mp-16491,SrAl9Co2,0.0
mp-774176,Li2V12O29,0.056627857093024765
mp-1030911,NaLiMg6O7,0.2863229436666668
mp-554993,Pd3(PbS)2,0.0
mp-995206,H2CO,0.45958890937500296
mp-706231,NaSr9Fe5(MoO6)5,0.018177448400056303
mp-1097437,Ti2CoMo,3.706606640555555
mp-20109,Th2NiB10,0.0
mp-699243,La5MgRe3O16,0.02929919460000185
mp-566452,K8Hf(MoO4)6,0.0
mp-761570,Li3MnPO5,0.07626228824999792
mp-1097778,Sr2Ti2O5,0.059895312407409314
mp-780118,Na4Ni2O5,0.06065717369313627
mp-7557,Nb5SiSn2,0.0
mp-1021675,Mg6VBi,0.1815022362500001
mp-30248,LiMoS2,0.021937197291665992
mp-28663,Mg14Si5O24,0.020356082965115263
mp-997586,La7YAl8O24,0.025162280450002683
mp-3848,BaGe4O9,0.0
mp-505536,CeTe2,0.0066381810606062075
mp-21408,Gd(SiOs)2,0.0
mp-1024068,Mg3VO4,0.040462351250001305
mp-20294,CeIn5Rh,0.0
mp-773701,Na5LiMn2P2(CO7)2,0.016665502564104706
mp-982734,WN2,0.19384438833333206
mp-974650,Re2S2O13,0.0
mp-867246,TbGa3,0.0
mp-776817,LiFeF5,0.09228116214285896
mp-861918,Sc2TlCd,0.0
mp-29440,CuMo3I7,0.0
mp-1001831,LiB,0.3742280874999997
mp-745208,DyFeH8C6(N3O2)2,0.2904091732264993
mp-30222,Cs3BS3,0.0
mp-570901,Yb2Au,0.0013834427777781322
mp-1096531,ZnGaNi2,2.0938150648214315
mp-18135,Zr4Co7Ge6,0.0
mp-567264,SbMoOF9,0.0
mp-774301,Li3Cr3(NiO6)2,0.05935975887499989
mp-569814,TiBr4,0.0
mp-27758,AlTl2F5,0.0
mp-2306,LaMg3,0.008969846250000746
mp-978509,Si3Ru,0.5534097093749999
mp-573449,CsYbCoSe3,0.10518270942129516
mp-1026822,KMg14W,0.2655575193750006
mp-25626,K2VH2OF5,0.0
mvc-7963,NiAs2O7,0.2621347648749994
mp-22036,ZrSbPd,0.0
mp-557500,LiNi(PS3)2,0.03672680777082782
mp-1001571,CaFeO3,0.05167116699999852
mp-1074193,Mg4Si7,0.2368686778282845
mp-10250,BaLiF3,0.02196861000000005
mp-28092,B20H26O,0.20437216091607624
mp-1080480,CeSi2Ag,0.0
mp-772867,La2Bi2O7,0.030245596136360575
mp-1024067,Na2ZnS2,0.0
mp-1009087,BeSiAs2,0.0
mp-19168,LaMnO3,0.011594415500008282
mp-865251,TmThTc2,0.0
mp-25456,Li2CuPCO7,0.030041747799476326
mp-1009009,LiF,0.27311083000000025
mp-648573,ZnAg2C4(SN)4,0.12676801248438085
mp-567929,Al13Os4,0.0
mp-1096358,TiCdCu2,2.07711512925
mp-764191,Li9V3P8O29,0.029406531734695207
mvc-6664,Mo3(AsO4)4,0.11012041913044612
mp-38676,Li11(NiO2)12,0.010263585053198021
mp-1079283,LaAlH6,0.0
mp-770888,Li4Nb5V3O16,0.07752143490327867
mp-10718,Sm3SnC,1.840466301666667
mp-1023298,Mg6AlMo,0.24546454208333346
mp-1078343,UGa5Ru,0.0
mp-1086667,ScNiC2,0.04430118624999935
mp-989601,LaWN3,0.023239172000000245
mp-1096468,LiZn2Cu,1.1288467771875004
mp-546877,V7O3,0.847645982625
mp-865527,YAl3,0.0
mp-1096729,Ti2CoRh,3.2719962775000004
mp-625404,AlHO2,0.018554439375000342
mp-555824,SrMo2(AsO6)2,0.03638281338235316
mp-541687,K3GaSe3,0.0
mp-624214,Cs3Bi2I9,0.00116938964285751
mp-35091,Li31Zr2Sb13,0.1118293564311621
mp-21432,LaPb3,0.0
mp-568189,Gd3CuGeSe7,0.0
mp-24113,SnH8(NF3)2,0.0
mp-567858,Dy12C6I17,0.0
mp-23376,GaSeBr7,0.0
mp-560386,In2Ag2GeS6,0.012373227102273177
mp-1017459,LaMg6C,0.43985269610795497
mp-568032,Cd(InSe2)2,0.004348300000000194
mp-566832,KMoP2O7,0.00011286500000196042
mp-28538,SiH3I,0.0
mp-1028247,YMg14Ni,0.06679407000000026
mvc-11307,CaCo2S5,0.3021886956250004
mp-554847,SbP(Cl3O)2,0.0
mp-19680,RbLa(WO4)2,0.0
mp-850503,NaCrH22N6(Cl2O)2,0.0
mp-567671,VCdClO3,0.006252786666650857
mp-765791,Li2V3(OF)4,0.07229395363247447
mp-11098,YbMgPd,0.0
mp-1884,Ca5Ge3,0.0
mp-26767,LiNb(PO3)4,0.07141069352247786
mp-2458,TbO2,0.12670745499999825
mp-13516,TmAl3(BO3)4,0.004443001668269275
mp-3277,BAsO4,0.0
mp-768230,SmTaO4,0.058275101666666274
mp-18932,LiPr(WO4)2,0.0
mp-560848,AgSbPbS3,0.015972402500000094
mp-679997,CsAg2(B5O8)3,0.0
mp-977110,NaSnPd2,0.0
mp-865257,DyZnRh2,0.0
mp-697753,Li3Cr2(PO4)3,0.02561486499986909
mp-765351,Li2Sn4P4O15,0.09798593609999172
mp-763511,Li2P2WO8,0.0656816449999944
mp-776610,Ba6YI15,0.08942802500000148
mp-1058315,KP,1.0091869124999997
mp-37888,In2HgTe4,0.2087065014285714
mp-5853,LiSi2N3,0.0
mvc-16773,Li(MnS2)2,0.15391079928571472
mp-13398,Yb(MnSi)2,0.0
mp-541283,InGaBr4,0.0
mp-559232,H2C3O4,0.2549221613888868
mp-763983,V2O3F,0.003484006111113657
mp-776000,Ti3Mn2Sb(PO4)6,0.050443313900464304
mp-1037731,YMg30SnO32,0.11655655035156265
mp-3204,YbSnPd,0.0
mp-20247,Dy(Fe2Ge)2,0.03193319785714088
mp-979910,VCuRh2,0.0179116531249992
mp-862735,SmAg2Sn,0.0
mp-752674,BaY3F11,0.04194184116666744
mp-556047,K2OsCBr5O,0.0
mp-312,ThIr5,0.0
mp-868138,Li4Co3NiO8,0.007281083958340595
mp-1033019,Mg6AlBiO8,0.5526728327864587
mvc-3042,Ba2Tl2Zn2Co3O10,0.1929405899445955
mp-1026786,LaMg14Cr,0.1278877460937502
mp-558712,Ag2BiO3,0.0040989250000000865
mvc-402,Mg2MnNb2O8,0.0
mp-555941,AlPO4,0.010930205277782434
mp-2139,BaGe2,0.0
mp-865768,Ti2MnOs,0.0
mp-647629,YbMoClO4,0.11823583714285756
mp-636328,TiPd3,0.0
mp-153,Mg,0.010343930000000112
mp-867861,SmYMg2,0.003297987499999877
mp-862543,Sc2AlTc,0.0
mp-567918,Ba2Nd7Si11N23,0.0
mp-625082,H2CO,0.2762228775000031
mp-573566,CsCr5Se8,0.00011821642857157144
mvc-10646,CaFe4O9,0.24973552825892664
mp-795639,Rb2Be4Pt3,0.3768653957777781
mp-8146,SrPuO4,0.0
mp-8057,Ti3O5,0.008387781874983347
mp-867599,Li2Cu3F9,0.05587861797619986
mp-775231,NiSb3(PO4)6,0.02511451167279421
mp-561886,CsNd(PO3)4,0.006725530833332272
mp-764817,Li2Mg11(WO4)12,0.0998506453424639
mvc-1710,MgTi(PO3)4,0.13759432134788785
mp-2624,AlSb,0.0
mp-705244,Ba2VI5O17,0.00491386175000752
mp-3236,Pr2SO2,0.0
mp-10410,Ba4Sm2Cd3S10,0.0
mp-614792,CsNiF3,0.0
mp-11367,DyHg2,0.0075524608333332735
mp-695894,NdH12(NO5)3,0.016870672258065156
mp-867837,BeCrRu2,0.0
mp-567629,CsPbBr3,0.0
mp-781693,Mn6O11F,0.04612951909722973
mp-33319,Pr3NF6,0.05804702800000072
mp-694915,CaLaMnSnO6,0.051651257416668095
mp-19828,PuRu3C,0.0
mp-1035948,RbYMg14O16,0.21875688031250107
mp-541434,VH14SO11,0.020233878251028514
mvc-13757,Mg(SnN)2,0.2448544540000013
mp-849471,Li4Mn3Cr2Fe3O16,0.044649994976464484
mp-861600,Ho2ZnIn,0.0
mp-757838,LiSn(PO3)3,0.06641416413690493
mp-554570,H10C3NClO4,0.5863766878947372
mp-1030516,TeMoWSe2S,0.06332153833333365
mp-14885,Rb2Cu2Si8O19,0.002918328602148357
mp-769774,Rb3FeO3,0.0
mp-20177,Pu(FeSi)2,0.25195488162499835
mvc-9148,MgTiNi(PO4)3,0.0472235386689821
mp-25723,VIn2O5,0.028564365937501
mp-28982,Pd(PbCl3)2,0.005216326481480849
mp-761472,Co2CuO4,0.02686768119047933
mvc-11865,CaCoSi2O7,0.17539118931818276
mp-766013,Li2Cu4Si4O13,0.1224327654347821
mvc-14580,SbO2,0.16643891166669622
mvc-8799,Zn(SbO2)4,0.4654108641346157
mp-974997,Rb3Ge,0.2861418009375001
mp-565720,BaTbMn2O6,0.05708480408331161
mp-707931,H3Os4C12ClO12,0.1978682812499981
mp-643471,Ba2Y(Cu2O3)2,0.251315042769237
mp-1018664,CeO2,0.11979084166666355
mp-605239,KCa4Si8H16O28F,0.6582233140948279
mp-4606,U(Al2Fe)4,0.0
mp-30699,SmCu6,0.0007615946428574105
mp-771261,Mn3FeO8,0.09436058015625548
mp-1057568,TaN,0.33175642333333144
mp-23155,Ar,0.0
mp-568866,Na6ZnSn2,0.0
mp-865535,Ac2ZnGa,0.0
mp-571435,Hg2H10C3NCl5,0.05491395660714282
mvc-2857,CaWO2,0.6330743806249988
mp-22394,ThRu3C,0.0
mp-2502,TmCd,0.0
mp-8896,Sr2B4Rh5,0.0
mp-1034838,BaMg14NiO16,0.1800357918750004
mp-1097073,Sc2InAu,2.3246434495000003
mvc-7447,ZnBiSbO5,0.12516649359375087
mvc-2846,W5O7,0.9254528710416654
mp-775082,Li3Fe4SbO8,0.0
mp-756427,Li5SbS4,0.05149367400000138
mvc-2769,Ba2Mg2Tl2Sn3O10,0.31014026026316266
mp-35717,LiDySe2,0.015943752499999242
mp-3890,Sm2Cr2Fe15,0.03813249447368605
mp-567655,Sr2C(NCl)2,0.0
mp-29309,Si2H6S,0.0
mp-22568,V3Ga,0.0
mp-673024,LiSn4(PO4)3,0.029245053833332868
mp-1029490,Sr3B3N5,0.0
mp-4377,K2TbF6,0.0
mp-12712,Zr3Pd4,0.0045616230357143905
mp-645935,Ni3Mo2SeO11,0.0034995786029403675
mp-24859,CoPb2WO6,0.025974625500000847
mp-865507,VSiRu2,0.0
mp-1026663,CsMg14C,0.3606916623437504
mp-4767,Ce(SiOs)2,0.0
mp-753277,LiAgF2,0.025991916249999747
mp-38605,Sn(BiTe2)2,0.0
mp-5246,KNbO3,8.431599999880746e-05
mp-866520,Ca2SnS4,0.10764625535714156
mp-1034825,Mg14CoBiO16,0.13068118957031505
mp-1095501,TmSiPt,0.0
mp-1023267,CaMg6Zn,0.08166553906249985
mvc-12366,MgTi4O8,0.11972433278847028
mp-530728,Sc11Nb3O24,0.018008114868420574
mp-722245,K2H2C2S2N2O,0.08127050356060739
mp-541267,VAs2H4O9,0.0
mp-27948,Ge(BiTe2)2,0.004923225714286161
mp-779518,BaP4O11,0.0
mp-556724,Ti7O13,0.012591208249983056
mp-21461,Rb2PbO3,0.0
mp-26649,Li2SnP2O7,0.01971719249999371
mp-756830,MgCu2(SiO3)4,0.06560158651315895
mp-10070,BaAg(PO3)3,0.0
mp-1097581,CdCuPd2,2.011867562499999
mp-770530,Li14Mn2O9,0.04298790039999911
mvc-14519,ZnFe2O5,0.2668642935937502
mp-1020717,Zn2SiO4,0.1215941172619015
mvc-8339,MgCr2O5,0.2126606984375065
mp-569779,ScSbPd,0.0
mp-8713,K2MnS2,0.0
mp-570471,CdN6,0.11693723956714308
mp-1079832,ScTe,0.027077193750000284
mp-999190,SmCoC2,0.01613286125000002
mp-1074947,Mg3Si4,0.2255170554761903
mp-754903,Y(BO2)3,0.007510545500000632
mp-773726,Na2LiMnPCO7,0.02524904993589772
mp-505167,ErCu(WO4)2,0.03548028677083437
mvc-3875,Zn2Sb2O5,0.26074647361111136
mp-40685,NaSm3Ti2(SbO7)2,0.0
mp-27935,AlICl6,0.0
mp-707645,Na2Ca3B5H2S2ClO18,0.001366550461753491
mp-733929,P2H4PbO8,0.04831880400000088
mp-19702,Mn2Te3O8,0.0
mp-972502,Sm3Dy,0.014079106458333438
mp-862630,ReRu3,0.0
mp-11222,Sm3Al,0.025539504062498608
mp-555123,KMnF3,0.00218670599999804
mp-776198,V5CrO12,0.06906160017362062
mp-929,ZrCo2,0.0
mp-865002,CaYRh2,0.0032387391666661713
mp-971926,YErRu2,0.0
mp-774025,TiCr3(PO4)6,0.04926189170955908
mp-1099179,YMg14NbO16,0.21346952353515736
mp-504366,Li9V3P8O29,0.004264370408167295
mp-779983,Li7(CoO3)2,0.06254319466667102
mp-762180,LiV2(PO4)3,0.07144187736111096
mp-866461,Ce4MgRu,0.05478155416666741
mp-1076685,K4Na4MoW7O24,0.01553746512499821
mp-11382,NdFe5,0.0360418854166662
mp-1078808,TlSe,0.0
mp-866283,CaHoRh2,0.0012740741666670274
mp-28072,La2Be2O5,0.03951340777777723
mp-868653,CrCu(PO4)2,0.04090990447916543
mp-685403,Tl3(V3S4)8,0.31950306516949034
mp-551873,Ca4Bi2O,0.0
mp-763676,Li4Ti2V5O12,0.025881124975851932
mp-1063268,CoO2,0.4018003391666669
mp-862722,LiHoAu2,0.002398397916666184
mp-558795,KMgPO4,0.0
mp-704634,Ba2Nd2Fe4O11,0.005451896165411085
mp-1097283,LiHfAu2,2.023474160416669
mp-1039659,CeMg2,0.04088120805555606
mp-738635,NaZnP2HClO7,0.21141043488782074
mvc-10463,MgMn2(CuO4)2,0.2017767893269236
mp-865654,Y2TlAg,0.0
mp-505554,Sc(FeSi)2,0.0
mp-581024,CsK2Sb,0.0
mp-853174,LiFeCoO4,0.03153057602678988
mp-705339,Li2V(PO3)5,0.0324506597101859
mp-559405,RbU2SbS8,0.0
mp-1642,Ta5N6,0.0
mp-30659,YGa2Ni3,0.0
mp-865021,Be2RuPt,0.0
mp-355,Nd5Si4,0.0
mp-569100,LaRh3,0.01328049166666556
mp-828,SiNi3,0.0
mp-778765,Mn7Sn(PO4)12,0.06911246014705963
mp-557523,VS2,0.018777105000000738
mp-1099293,HfMg6Ni,0.2475294993749997
mp-1077985,Pd(NCl2)2,1.3386906473244449
mvc-253,Mg(MoO2)4,0.17312773807691606
mp-680676,K2Dy4Cu4S9,0.0
mp-1100354,CaSnS3,0.0963581872499999
mp-1025433,HoGa2Ni,0.0
mp-762426,LiNi2(CO4)2,0.3913085692948757
mp-21175,TaGaNi2,0.004365586975806579
mp-27990,B2H5,0.0
mvc-2597,Ba2TlBi2O7,0.1694474919791631
mp-980201,TmHfIr2,0.04956547375000042
mp-570060,Ce6B2(CBr)3,0.0
mp-867110,Sc2CoOs,0.007015098194443682
mp-651073,CdAs2C4SN4(OF6)2,0.20473935341818986
mp-1069937,Ba(SbRu)2,0.030674553900000845
mp-850943,Li6TiNi3(PO4)6,0.0792657577499929
mp-28301,OsBr4,0.0
mp-559808,Cs3PO4,0.0
mp-8581,Sr(PRh)2,0.0
mp-861913,LiDy2Al,0.0
mp-1029869,K15Mo7N19,0.0
mp-4901,Y2MgCu2,0.0
mp-1009696,RhC,0.5613610512499996
mp-984315,Be3Ni,0.0
mp-1026720,CeMg14Bi,0.07934226312500002
mp-752724,Ho2TiO5,0.08152681312500043
mp-686086,Tl9SbTe6,0.148487605492424
mp-540475,LiMnPO4,0.04415722607142936
mp-1028276,KMg14Sn,0.12066321166666573
mp-1076354,Rb2V2O5,0.06001460999998809
mp-1032523,Mg6FeSiO8,0.3822116229687476
mp-3829,CdSnAs2,0.0
mp-1060982,CsB,2.2047518716666668
mp-1009083,MgSnP2,0.010045120250000041
mp-555067,AsC4S4N4Cl2O2F5,0.1056773932279853
mp-561467,YAg3(PS4)2,0.0
mp-973053,ScH3,0.03701789284500023
mp-780098,LiCoSnO4,0.07272061499999705
mp-849371,CdSnO3,0.030297389500000268
mp-863076,NbBiO4,0.06373931375000375
mp-1096590,K2CdAu,0.5402471194871796
mp-982380,Li2Mg,0.0119140666666675
mp-23795,CuH4(OF)2,0.02540053055555358
mp-1035724,KHfMg14O15,0.2278111088306458
mp-1096703,NaTl2Ag,0.98548632125
mp-542115,Hg3Se3O10,0.0
mp-558360,AlAs3S5Cl4,0.0
mp-1026613,Mg14GaSn,0.041275757187499984
mp-18217,K3AlSe3,0.0
mp-1038009,SrCaMg30O32,0.051614246249999766
mp-962075,SrMgSn,0.709355935833333
mp-1077918,Sr2TcO4,0.0
mp-11694,Cs2Pd3Se4,0.0
mp-704784,Rb2Co2O3,2.773892857099725e-05
mp-1038313,Mg30MnCuO32,0.01944300484375017
mp-735543,MnH6SO6,0.07466738703102571
mp-810,NiSb,0.0