mpid,formula,e_hull
mp-1095261,ScCoGe,0.0
mp-20571,DySiPt,0.0
mp-758651,Li3Sb3(PO4)4,0.06679987416666666
mp-761519,Li4VFe(WO6)2,0.15570944925000152
mp-555717,K2Nd2IrO7,0.0
mp-1337,MoAs2,0.0
mp-1096816,Al2ZnS4,0.10965498500000148
mp-1028232,Mg14AlSb,0.04079862959134607
mp-3939,Sm(SiNi)2,0.0
mp-1096496,NaZn2Au,0.8130167367995687
mvc-3024,SrCaP2WO8,0.1997599585576637
mp-1098633,Mg30AlFeO32,0.052115645898438416
mp-530303,Mg(GaO2)2,0.008466112500011391
mp-1029031,MoW3(SeS)4,0.014696620000001381
mp-771796,Mn3CuO8,0.07426797057291701
mp-780171,HgH10N2Cl4O,0.003390891388894701
mp-568512,Ba6Mg23,0.0
mp-1079793,PuAlCo,0.5892238210416689
mp-30934,As(S8I)3,0.0
mp-1096391,Ba2TlPd,1.2745389106250002
mp-1094018,Zn4Ga2S7,0.3857441946153855
mp-1068685,U2PtC2,0.0
mp-571514,CdI2,0.0010402318888889095
mp-559822,La2TaCl3O4,0.002991933083335674
mp-771622,Li4TiMn3O8,0.09743255281250016
mp-744148,MnH8(NO5)2,0.0034577121428522872
mp-977399,LiMgPd2,0.0
mp-542569,AlRu,0.0
mp-8675,HgPd,0.07520123749999996
mp-625152,AlHO2,0.004971969999999715
mp-1079053,B2Mo3,0.041035491999998897
mp-1025087,NdNiSb,0.0
mp-1076107,Sr5Ca3FeCo7O24,0.0608494342500121
mp-872,BaSn,0.0
mp-971657,Au3N,0.6901657219049997
mp-976593,Nd3Si,0.1471679400000001
mvc-10171,Ca(CoO2)2,0.1301360251190351
mp-1018070,Ti2InFe,0.2322258400000008
mp-1006146,Eu(MgBi)2,0.0
mp-673165,Dy2O3,2.744262485
mp-12205,Ti4O7,0.006189168863619089
mp-545,TiS,0.27043426749999805
mp-18361,K7NbAs4,0.0
mvc-922,BaMn4ZnO8,0.2291291123809733
mvc-5138,ZnSi2NiO6,0.029935750916661338
mp-28075,K2Ti2O5,0.0
mp-762404,LiMn3O6,0.049486779125002656
mp-541146,Ge2C2(SeF2)3,0.34904276657452193
mp-780218,Na5LaO4,0.04341270312500267
mp-569267,Ca2CdSb2,0.0
mp-865736,YbBiPd2,0.0
mp-851,ErPd,0.0
mp-19854,Pr2In,0.009875803333334154
mp-11370,ErIn,0.0
mp-561309,Na(CO)3,0.2379960637500007
mp-625812,Sr(H2O3)2,0.29262573038961026
mp-4666,CdSiP2,0.0
mp-1098784,KMg30FeO32,0.046190567568360485
mp-29487,PdCl2,0.0
mp-1095834,Mg2IrPt,2.59271686875
mp-1074064,Mg9Si5,0.21658018892857145
mp-1099665,Sr2Ca2FeCo3O10,0.023569869640593488
mvc-7054,TiS2,0.2291731599999807
mp-1032743,YMg6ZnO8,0.25281839312500143
mp-1021706,Mg6NiSb,0.15877329312500033
mp-1036437,Mg14AlCO16,0.2827619594726549
mp-1055985,B,0.7123462133333334
mp-977409,NbTc2Ge,0.0
mp-1018815,NdSbPd,0.0
mp-21082,Dy(GeRu)2,0.0
mp-765033,Li10Mn5Fe3O16,0.10609396882353027
mp-19563,Na2CoPO4F,0.007665816111111391
mvc-15815,CrN,0.6332093849999882
mp-741045,Na4AlP2HO9,0.0
mp-28402,Zn(Bi3O5)4,0.06161052757575902
mp-569079,Tl4Ni7(PO4)6,0.006731270934958289
mp-1069055,Cu(BrN)2,1.7214885910480011
mp-29567,CuSe2Br,0.0
mp-565354,LaP5Cl18O17,0.08998179829268338
mp-675770,Nd3U2O10,0.0
mp-639787,K3VO4,0.0
mp-766993,Li2MnO2F,0.07477393291666345
mp-1094242,Mg2Sn,0.11639069388888901
mp-677132,Gd2CdSe4,0.02934308000000652
mp-1001838,IrC,1.4384894412499998
mp-1028094,YMg14Fe,0.11215931749999886
mp-561479,K2U(WO5)2,0.0
mp-576,B13C2,0.0
mp-23108,Cs2NaUCl6,0.018912803749999263
mp-18927,Zr3NiO,0.4789584762000008
mp-1080210,NaMn3O6,0.07043993689204342
mvc-13572,Mn2Be3(SiO4)3,0.1538931868125033
mp-790,LuPt3,0.0
mp-333,HfFe2,0.0
mvc-12022,MnO2,0.0
mp-28241,ZrI2,0.07949200305555593
mp-780554,LiFeP2HO7,0.057632452083335124
mp-866188,TlCdRh2,0.0
mp-559949,Zn3(BO3)2,0.019485572045452315
mp-1016837,SnHgO3,0.3372345775000003
mp-638070,LiB13C2,0.00021936968750058128
mp-977439,Ce2ZnPb,0.04508283671875102
mp-1304,Zr5Si4,0.0
mp-504151,LiBi2(PO4)3,0.05789215386573954
mp-780304,V4OF11,0.0016684615625015553
mp-1753,ThAs,0.0
mp-680112,CdI2,0.0016895859797980695
mvc-7465,CaBiSbO5,0.08689568656250124
mp-31054,La3(VN3)2,0.0
mp-761706,Li2CoP2O7,0.0834330835069208
mp-1023148,Mg6MnFe,0.21113904625000046
mp-679630,Ba2BeS(OF)4,0.6024227177083281
mp-1396,Rb2Te,0.05661748999999716
mp-31993,Li3Mn2(PO4)3,0.02077832299999827
mp-861693,LiMnPO4,0.08760862267857218
mp-769637,Li5Ti6FeO16,0.0
mp-23711,MgH2,0.0006492308333330142
mp-772054,LiMnVO4,0.0960272364285677
mp-558552,Ta6S,0.005286735535715792
mp-27472,NbSbF10,0.0
mp-679971,TiSi4(NCl7)2,0.05333546101190567
mp-20397,Sr(InTe2)2,0.0
mp-554027,Y7C3I6O,0.0
mp-866809,YbB2C,0.0
mp-698318,CuSi2H18C9O2,0.21976923579427154
mp-978815,Sm2TlZn,0.016480103750000197
mp-36216,Ag2S,0.007359086666668623
mp-768076,Li3V4(PO4)6,0.016142434391860583
mp-1035266,Mg14CuBiO16,0.12684840988281287
mp-767056,Li2MnO2F,0.0831102041666627
mp-705610,Al2NiO4,0.00838601559523422
mp-673696,Lu4Zr3O12,0.0
mvc-8202,CaTi2O5,0.05866180578125401
mp-1007852,FeCo3,0.044033220000000206
mp-971700,ZnAuO3,0.7831513173749993
mp-1027615,Te2MoWS2,0.15488349000000046
mp-616135,Cs5SiP3,0.0
mp-770125,BaLaCl5,0.07596766357143014
mp-865349,Li2GdTl,0.0
mp-1080466,Nb2PdS6,0.0
mp-1100478,Li9Mn2Co5O16,0.1278795799999637
mp-505818,Eu2Si2O7,0.025483546136364055
mp-13066,Er2O3,0.07431206075000141
mp-610736,LiMnF4,5.942499999989082e-05
mp-1026819,BaLiMg14,0.11692345375000013
mp-1023296,Mg6NbAl,0.1971017600499998
mp-705957,Fe2CoO4,0.032609155119060595
mp-567749,Y(SiOs)2,0.0
mp-569149,K2TeCl6,0.0
mp-861665,LiTmIn2,0.0
mp-31628,CrReO4,0.022656768472224087
mp-1093857,Y2RuAu,2.3931054490625003
mp-579861,Rb4Mo21S25,0.016964107450001542
mp-753774,KTmO2,0.0
mp-558713,LiAlSiO4,0.019378831428571885
mp-777417,Li4Ti5Mn3O16,0.04001380442710811
mp-1038674,SrHfMg30O32,0.10851866855468996
mp-771865,Li2Cr2SnO6,0.07517501181818886
mvc-9213,CaTiMo(PO4)3,0.0
mp-28611,ThTa2O7,0.0
mp-20101,Yb5Si4,0.034012338611111304
mvc-13350,Cu2GeS4,0.06422809800595264
mp-1096871,BaNb4(FeO7)2,0.14681662214285573
mp-705036,Mn5(P3O11)2,0.02604323590908919
mp-31079,Ce3(Al3Ru)4,0.0
mp-21318,PtPb2,0.02837256444444236
mp-1028463,Te2MoW3(Se2S)2,0.06356023583333402
mp-680280,Ru3C10(NO6)2,0.2877203049162951
mp-754665,Pb(BrO3)2,0.0
mp-562283,GePb3O5,0.09619086271604617
mp-3268,YbB2Ru3,0.0
mp-20739,DyGePt,0.0
mp-761424,TiFe(PO4)2,0.09539111833329272
mp-568024,ICl,0.009207131875000885
mp-21076,EuRh3C,0.049558570500000336
mp-2033,Ni3N,0.0
mp-1026883,Mg14CoSi,0.1516074045312501
mp-998358,MgAgF3,0.015216911000000444
mp-565438,CrHg3(SO2)2,0.33492441447222365
mp-1079797,SmCdCu,0.011658665277777924
mp-772516,LiCoPO4,0.07707486589285839
mp-23438,BaBiO3,0.02399988450000024
mp-557976,Na(CO)2,0.22547098074999994
mp-9953,HfP,0.0
mp-28861,CsC8,0.0
mp-850142,Li2Mn(Si2O5)2,0.06930614147058822
mp-30528,MnTlCl3,0.02426385950000398
mp-556244,Xe2NO2F13,0.0
mp-674987,Ba5Bi5O13,0.05687218184782505
mvc-337,Sr2GaW2O7,0.26998186905671684
mp-7777,Li2PrP2,0.1415309225000012
mp-762878,Li9Co15O28,0.09788810120191993
mp-1028000,CsMg14Zn,0.19570568286250006
mp-1073428,MgSi2,0.19867145425926136
mp-540405,LiFePO4,0.04458057249999925
mp-1030823,Mg6NbSiO8,0.4970529146792764
mp-569174,Li2MgSi,0.012826892187499885
mp-861494,V3CoO8,0.07767556895832682
mp-781497,LiMn2(BO3)2,0.07865854386363225
mp-541793,NaFeBP2H3O10,0.0015404091666626485
mp-755659,DyHO2,0.0013657565625004866
mp-865728,Ti2ReNi,0.0
mp-1010953,MgNi,0.0505081133333336
mp-761553,Li2Ni(PO3)4,0.08443267030702463
mp-1018073,HoGa,0.0
mp-850186,Li4Mn2Co3Sn3O16,0.0924839733928602
mp-1027608,Mo2SeS3,0.010644327499998774
mvc-1116,CaP4W3O14,0.3406735986931828
mp-766644,Li5Fe(CO3)4,0.052460986136362735
mp-22470,La(FeAs3)4,0.0
mp-773751,Fe3(OF2)2,0.07452700888889385
mp-18752,BaYb2NiO5,0.01980397944444512
mp-29774,Ho14Ge23,0.00017958729729716794
mp-636821,U6Ni,0.04882656214285674
mp-25600,NiH2SeO5,0.0
mp-762957,Li5V3P8O29,0.0335526632407257
mp-510724,As3Pb5ClO9,0.0
mp-556878,BiPPbO5,0.0
mp-6276,K2Cd2(SO4)3,0.0045486647368537785
mp-12574,Dy2C,0.0
mp-5497,Er(CoGe)2,0.0
mp-1034446,Mg14VSiO16,0.17323131986778595
mp-1095817,Na2HgAu,0.6668002372916668
mp-647102,KNOF2,0.012423990499998537
mp-117,Sn,0.0
mp-765176,LiVF4,0.0868390745833425
mp-782688,Li2FeF4,0.05560597285714319
mp-669357,CdI2,0.0017150526464646545
mp-867234,TbMgHg2,0.0
mp-9570,Ca(CdP)2,0.0
mp-1008702,Ti2In,0.6458152566666673
mp-849069,NiS,0.11217640229166737
mp-570879,CaCuSn,0.0
mp-675592,Ca(Bi2O3)2,0.13843838977272593
mp-644295,CaZrGeO5,0.010813637291667176
mvc-5760,BiO2,0.08261097166666431
mp-769883,MnTlO3,0.06306441656250161
mp-755790,HfPbO3,0.0137888129999979
mp-37263,Ca(NdTe2)2,0.029851462857144462
mvc-14334,MgVF5,0.032940160714286286
mp-1031846,Mg6MnVO8,0.04808554536300225
mp-777789,Na11Bi5O16,0.07683285390628303
mp-771732,Li3MnBPO7,0.08250298215143115
mp-775997,V3P2O11,0.06232350031248046
mp-17652,Tb6Al3Si,0.030509398680556462
mp-738668,NaH3(CO2)2,0.12481365766666652
mp-705593,Al2NiO4,0.012139289285706843
mp-1018134,Li,0.0007630733333334749
mp-1017317,NaMg6Cr,0.21558993687499986
mp-1097461,ZrAlFe2,3.173735934531249
mp-1079048,V3PN,0.0050169168095184355
mp-23,Ni,0.0
mvc-7635,CaCo3O7,0.13609099818180415
mp-27938,Tl6SI4,0.0
mp-763708,Li2TiV2O6,0.043397109204549984
mp-771348,LiZn6Fe17O32,0.10565859669642473
mp-16801,GdSO4F,0.0
mp-37108,Sr(NdS2)2,0.004229842142857265
mp-1007761,HW,0.08181016068999902
mp-769721,LiMnBO3,0.05901348777778015
mp-1076610,La7SmMnFe7O24,0.12669355656250406
mp-755556,Ba6ZrO8,0.047580050666665485
mp-759324,Yb(Bi3O5)4,0.0592024168181835
mp-767781,Sr16Mn8O29,0.0
mp-1026751,LaMg14Mo,0.19710210171875
mp-770172,Li4MnCrO6,0.01282628999999691
mp-19693,K2Zn2(MoO4)3,0.0
mp-8945,YSnF7,0.003730566944443403
mp-1096040,ZrScRu2,3.4174208849999994
mp-695227,Ca14La6Mg3Ti17O60,0.011945200200003114
mp-763778,Li2Ni3TeO8,0.0761308957142548
mp-22703,Ni8Ge2B3,0.0
mp-20737,KNaEuNbO5,0.0
mp-770525,Na6Mn2C4SO16,0.0
mp-752835,Li2Cu2F5,0.04461055250000001
mp-1096948,EuH6CI3N,0.0333353507291676
mp-1945,NdCu6,0.002803413928572418
mp-1017269,Mg6GaSb,0.09404827874999988
mp-1023506,Mg15Al,0.02030267177884615
mp-559932,KTeOF3,0.0
mvc-4369,Mg2TaMoO6,0.07867160541666253
mp-772326,TiMn5(PO4)6,0.034356052812508864
mp-972082,Tl3Si,0.3507507437499999
mp-33683,AgSbSe2,0.021163072499999824
mp-770756,Li3SiSnBO7,0.0588355798076945
mp-3166,Th(SiOs)2,0.0
mp-753130,Li4CuF7,0.08431211944444694
mp-569384,PrMgSi2,0.0
mp-1080153,MoW(SeS)2,0.03165887416666724
mp-568827,Be12W,0.0
mp-542830,Mn23C6,0.0
mp-720670,Na10Zn7Sn7H24(S13O6)2,0.0
mp-632480,Ag3SI,0.06286674300000028
mp-1093641,Li2HgPt,1.3801048599999997
mp-754534,Li2CeO3,0.0
mp-540463,CrPO4,0.08461793499999892
mp-562066,BaCrF5,0.0
mp-769484,NaMnPCO7,0.009188969090910605
mp-772750,Li3MgPCO7,0.0499456546153878
mp-25795,BaVP2(H2O5)2,0.0
mp-22645,PrSnPd,0.008005270833333356
mp-545730,AgCNO,0.8281725125299992
mp-779239,Li3MnV(PO4)3,0.0592833668124646
mp-3927,CaAsAu,0.0
mp-1031822,Mg6NiSnO8,0.27574796531250106
mp-765393,Li10Cr3P6(O4F)6,0.08192699095723999
mp-1080163,Mo3W(SeS)4,0.03129741416666665
mp-777186,Na2CoO3,0.08032116931373068
mp-1075911,RbNbO3,0.08303851849999866
mp-779382,Li3V4(OF3)3,0.08493117149123819
mp-22893,PbI2,0.0009144133333331973
mvc-9160,Ca(WO2)4,0.3406092400000009
mp-770235,Li4Ti3V3(WO8)2,0.04719235935268706
mp-1098429,LiMg30BO31,0.09869940797721366
mp-754203,SmErO3,0.059601412750000186
mp-1026840,BaLiMg14,0.1114449687500001
mp-1039468,CaMg,0.04221203458333345
mp-1018941,PrTeCl,0.0
mp-743972,K2NaNb2Fe7Si8H4O31,0.011459970500006023
mp-531213,Ca13Y6F43,0.0253992044892506
mp-24934,InFeO3,0.03275244549999545
mvc-10021,LaCrReO6,0.1063967991667134
mp-998147,TlCuCl3,0.010139651999998556
mp-866813,Ca2SnS4,0.11309817589285576
mp-680377,Rb12Sn8GeO4,0.005429806199999998
mp-765850,NaV2O5,0.00595068843739366
mp-11073,Ti3In3Rh2,0.0
mp-776749,Li2V3CuO8,0.0786805463095206
mp-703531,CuSiH8(O2F3)2,0.007875029944445444
mp-541996,Pr2SiTeO4,0.006146660000000637
mp-555433,NaYbCO3F2,0.03978194257812895
mp-555982,Si2Ge3P6O25,0.0
mp-656152,Gd2Cl3,0.001496760000000208
mp-1079585,Nb2N,0.0
mp-7739,Ba2ZnF6,0.02679178111110404
mp-17769,YSO4F,0.006914545714286291
mp-555108,PH9C(NO)4,0.060620446185320816
mp-780831,Mn6O7F5,0.07746897659723917
mp-12948,NaMgF3,0.034613116499999215
mp-1097902,Li3Mn4O8,0.0991898657708381
mp-754844,Na2IrO3,0.0
mp-867220,LiTm2Ir,0.0
mp-707782,K6Zr3H8(OF)12,0.0
mp-983587,Ac2NiGe,0.0
mp-6267,LaSiBO5,0.0
mp-744430,Mn5P4(HO2)10,0.0031843164743374786
mp-17429,KHfPdF7,0.0
mp-559953,Co2P2O7,0.014278169090899516
mp-776790,BaLi4NiO4,0.05114824075000346
mp-1029650,Na15Re7N19,0.0
mp-7018,LaGaS2O,0.033489032000002084
mp-542843,MgB2P2H8O13,0.008638785608973798
mp-762169,Li4Co3Ni3(SbO8)2,0.029131559732142875
mp-600061,SiO2,0.01595217569444429
mp-542501,Rb2U3(TeO7)2,0.0
mp-1035025,LiHfMg14O15,0.11708432419354775
mp-3587,Sc(SiNi)2,0.0
mvc-85,Ca2TaNb2O8,0.21679529024725144
mp-972848,SiC3,2.3304414441666665
mp-1080280,CeSe2,0.28805853791666713
mp-762846,Li3Fe2(PO4)3,0.05340529624999935
mp-684985,Zr5I18,0.03447070260869545
mp-556343,SrGaBO4,0.00347253767857314
mp-669501,Si3Ru2,0.2377722355000005
mp-555558,Co2SiO4,0.02579558821428396
mp-1030507,Te2Mo3W(SeS2)2,0.0700396208333327
mp-765246,Li9Fe4(BO3)8,0.07915988434721921
mp-1018699,EuZnGe,0.057164025000000514
mp-756981,K2SbPCO7,0.0
mp-642894,UCo5Sn,0.011963400833334248
mp-1094263,ZrSn,0.2954279795833328
mp-557961,SbCNCl4O,0.043068865814789525
mp-1093819,LiScCd2,1.62604613375
mvc-12120,MnO2,0.03193812083333292
mp-20497,SrIn2Ir,0.0
mp-765084,Li5V3P8O29,0.035941494462948136
mp-608490,NaHgCl3,0.05488038700000032
mp-976405,NaEr3,0.3185571724999998
mp-3082,CaSO4,0.0027661738888919984
mp-743659,Sr3La9Mn11NiO36,0.0
mvc-1306,BaAlCo4O7,0.1049147797596124
mp-767058,Li2Cr(Si2O5)3,0.09068812129628777
mp-977155,NpFe3,0.19944678031250085
mp-853242,Li4V3P8O29,0.047480392916664726
mp-16517,TmAl2Ni,0.0
mp-543056,Mg7As6(HO6)4,0.14991528707318216
mp-560352,SrP2(XeF6)3,0.0
mp-36526,AcOF,0.0
mp-685632,Ba7U7O24,0.051660253759406416
mp-1039782,NaMg30WO32,0.03405843726562452
mp-1079534,EuP3,0.0
mvc-2564,CaMn5O7,0.043670378846156765
mp-18649,MnGeRh,0.0
mp-765620,Li5V2OF11,0.047576165538857566
mp-761517,Li4MnSi2O7,0.0239448857142861
mp-859784,LiV2O3F,0.08779958624999651
mp-777666,Li2V3CrO8,0.025052471086274508
mp-1076776,SrCa3TiMn3O10,0.06321155361109998
mvc-14482,Ti2ZnO5,0.17224109843749955
mp-18498,Sr3YRhO6,0.0
mvc-5978,Mg(WO2)2,0.4311371721428543
mp-867888,LiTm2Pt,0.0
mp-707992,DyP2H9O10,0.419222669216448
mp-555358,Ba2UCu2S5,0.0
mp-151,Tl,0.01988564500000001
mp-615459,La2Ni5C3,0.0
mp-1076932,BaTiO3,0.9850049159999896
mp-541571,Na2Si4NiO10,0.005263788970591321
mp-677336,Na10Zr6Si7(PO18)2,0.014874662377051706
mp-24348,BiP4HO12,0.0
mp-779962,V6O7F5,0.03794639777779274
mp-6973,CsNaS,0.0
mp-769999,Li4Cr3NiO8,0.013640920937500134
mp-645172,CsAs2Se3,0.0
mp-7247,CeZn3Cu2,0.0
mp-1095130,DySiAg,0.0
mp-1017366,Mg6SiC,0.5039708652083332
mp-976284,EuSbO3,0.1935822074000022
mp-140,Ga,0.02563000999999998
mp-705778,Mn3(AgO2)4,0.03631708933332867
mp-3762,VCu3S4,0.001802435000000102
mp-23970,NdP2H9O10,0.04373614069372689
mp-1028024,YMg14Cd,0.03327100093750013
mp-5578,LuB2Ru3,0.0
mp-977416,Er2AgIr,0.0
mp-741593,Ba4Y2Cu4W2O17,0.14702101327589026
mp-30179,Mn6Al31Ni2,0.030107599487178224
mp-7538,LaErO3,0.027281193874999943
mvc-2216,CaNi(PO3)4,0.0
mp-1021490,Sn4SF6,0.043949738863635616
mp-556951,CuH3C2NO4,0.12007020748105468
mp-10671,Sr3(AlGe)2,0.0
mp-771110,Li4Mn5P6WO24,0.07972413006251422
mp-769887,NbVO5,0.02919369392857085
mp-675759,Tm10Ti6O27,0.20992073668604405
mp-758281,RbB2P2HO9,0.0
mp-558111,Rb2MnF6,0.0
mp-571470,Na2SnSe3,0.0
mp-1094615,MgGa2,0.1323489916666687
mp-1078170,Mg(AlS2)2,0.033475264642857105
mp-1022962,CeYMg6,0.11403816249999955
mp-7664,Na6ZnO4,0.0
mp-27469,Th2BiN2,0.0
mp-18802,BaPr2NiO5,0.0
mp-763649,Li6NbCr3(PO4)6,0.08007589077084631
mp-16044,Ca(As2Rh3)2,0.0
mp-753519,CuPO4,0.0
mp-1098850,BaMg30CuO32,0.09354449164062564
mp-1076754,K4Na4Mo7WO20,0.21519454333333327
mp-557257,KVF3,0.0
mp-1098447,NaCeMg30O32,0.04825068926846488
mp-571305,RbCuCl3,0.011163056000000449
mp-7181,CsSr2Ta3O10,0.0
mp-19312,BaTb2NiO5,0.0
mp-540082,Mo2(PO4)3,0.0040027911764610735
mp-998710,TlHgF3,0.013363088000001078
mp-561469,Nd6S4N3Cl,0.0283721495238094
mp-7770,Sr(ZnAs)2,0.0
mp-23012,Bi2Pd3S2,0.0
mp-567404,YbIn4Pd,0.0
mp-1029256,Te4MoW,0.013874617083332376
mp-6944,LiTiO2,0.02778052687499777
mp-1078543,YbAlCu,0.0
mp-865175,LiEuTl2,0.0
mp-865341,Tm2InOs,0.0
mp-15624,Sr2Sb,0.029716702222222224
mp-1003764,K3Mn4O8,0.0
mp-7171,TmP,0.0
mp-776661,NbV3O10,0.08196067517856953
mp-1028273,NaMg14Sn,0.030294637812500188
mp-33528,NbP2O7,0.028327500919052895
mp-23076,Rb2CoCl4,0.0
mp-850450,Li7Fe8(BO3)8,0.01592001734042281
mp-558667,S3N3ClO2,0.247300813614074
mp-27659,PuPt4,0.16282841600000175
mp-1058159,NaS,0.3730917824999995
mp-571333,Ca5(SiN3)2,0.0
mp-771444,Li3MnAsCO7,0.06328752038461616
mp-19911,TmIn5Co,0.00028921749999977214
mp-686458,Rb11Al14Si10(AgO16)3,0.2268021634302233
mp-1100488,Li9Mn7O16,0.03651332718751821
mp-781707,La4Al2O9,0.00564350716666695
mp-1005760,Tl3Os,0.9782360975
mp-1027172,Te4MoW3S4,0.12552145395833406
mp-653925,Sr2DyGaCu2O7,0.02042321807692904
mp-24971,BaDyFe2O5,0.007938025119051062
mp-762568,Li2Mn(PO4)2,0.04837855580128192
mp-2310,CdO2,0.06443295374999725
mvc-129,Ba2Mg3Tl2(WO3)4,0.7615556624637687
mp-6383,BaBe2Si2O7,0.0002416697916673982
mp-510751,CuO,0.1826820087500005
mp-560476,Rb3NaTiO4,0.0
mp-581449,Re(TeCl6)2,0.003785856222222162
mp-1002083,CsKICl,0.06488240249999988
mvc-8251,ZnAs2WO7,0.16402333878787356
mp-763007,Mn2OF3,0.043837415763894334
mp-554733,Li4Al3Ge3BrO12,0.0
mp-1034328,Mg14SnCO16,0.3235097424218747
mp-4613,Zr2SnC,0.0
mp-504,CuS,0.00040439750000409447
mp-765853,LiV2O2F3,0.06330751789932698
mp-19962,Sn2Pt,0.0
mvc-11885,Ba4CaTl4(Cu3O10)2,0.2037533944285599
mp-3896,Y(SiIr)2,0.02361119499999909
mp-3838,Li5ReN4,0.0
mp-10204,MnSe,0.011671609999999609
mp-1032124,HfMg6FeO8,0.3542309364062497
mp-1079661,BC7,0.2386241359855834
mp-1094164,LaMg,0.10276991583333306
mp-770207,Li3Fe2P2(CO7)2,0.040776122567934614
mp-28569,NaInBr4,0.007368292083333561
mp-972249,Sr3Bi,0.17762423249999992
mp-862721,Sr2CdPb,0.0
mp-770594,Li2Co3BiO8,0.009784654499994437
mp-698414,CuH8C2NCl3,0.05703251100000006
mp-557016,TaP4S6Cl5,0.007296475173613538
mp-565622,K2Ni(NO3)4,0.0
mp-1033159,Mg6AlVO8,0.21762124437500047
mvc-1178,BaSb4O7,0.4837474955208352
mp-6492,Ba2YSbO6,0.0
mp-20889,HfSnPt,0.4930460850000031
mp-571599,Ba(BiPd)2,0.0
mp-707953,ZnP2H11C2NO8,0.055391449500002736
mp-637576,Mn4N,1.9855946939999995
mp-532091,Na26In4O19,0.016882758469386694
mvc-6757,Zn2BiWO6,0.18031973999999806
mp-18963,Ba2Mn3(AsO)2,0.002331258888887077
mp-1078706,Ba2CoCu2(SO)2,0.1968093952777777
mp-23245,ErBi,0.0
mp-22621,LaTiAgO4,0.0899304375000014
mp-771250,Na3SiSnCO7,0.06236555096153752
mp-1097298,HfSiTc2,3.773006851249999
mp-694554,Mn3(P2O7)2,0.017486082619042158
mp-12571,HfBeSi,0.0
mp-556291,Ba3Sn2S7,0.0
mp-771118,Li4Co5Sb3O16,0.07567658973212144
mp-1031456,Mg6TiSnO8,0.4232322082812505
mp-20129,BaTbO3,0.08625897399999971
mp-32088,LiMoP4O13,0.01726584824563826
mp-667323,Mg(GaS2)2,0.0
mp-505740,Eu2GeSe4,0.05605998491071418
mp-643074,Cs2P2H2O7,0.0
mp-555792,Na(OsO3)2,0.014845682500006953
mp-540610,K2U7O22,0.04173368758064022
mp-1030015,Mg3WN4,0.0
mp-556662,SiO2,0.07074417583333313
mp-676311,Nd2Zr2O7,0.2328206918181799
mp-1091362,Li(NdSi)2,0.014899190000001285
mp-22633,Pb3O4,0.0
mp-550547,K4CO4,0.26510543722221946
mp-768537,Cs3TlO3,0.010625124285713385
mp-1078081,K2CuF4,0.05898323428571395
mp-862723,ScTc2Mo,0.0
mvc-15812,Mg2Sn3O8,0.09570891653846304
mp-6016,NdAlGe2O7,0.0
mp-1034231,RbMg14BO16,0.2682449610937505
mp-19017,LiFePO4,0.0
mp-755868,LiCu5(PO4)2,0.1076898154687509
mp-31937,LiMn(PO3)4,0.03481701236111245
mp-699489,CsTiH24(SO10)2,0.02406685214900684
mp-1057238,YN,0.9375470499999992
mp-1076679,La7SmV7CrO24,0.11642691679687722
mp-743854,KNiH9(CO5)2,0.011021145434781054
mp-1094452,YMg,0.09702373749999982
mp-555825,Na4Sc2Si4O13,0.0
mp-1688,ErAs,0.0
mp-24411,K2LiAlH6,0.009100706999999986
mp-1080089,TaFeB,0.0
mvc-8664,MgFe(Si2O5)2,0.055935331796865384
mp-1093997,Zn2Ga2S5,0.13708075777778106
mp-1080373,CeSe2,0.5310280465277781
mp-694975,Ba3HoUFeO9,0.15080071332143952
mp-1099248,Mg3CO4,0.8663839604687471
mp-34584,Zr4N2O5,0.02382752704545333
mp-978262,MgTl3,0.05148731875000001
mp-745159,MoPH3O7,0.0
mp-29228,CsSrN9,0.008514411363639063
mp-863289,NaAl6Fe3Si6B3H3O30F,0.02584162287406944
mp-3361,Ba3Al2F12,0.0
mp-755057,Rb2PrO3,0.06485933208333172
mp-36765,Ti(CoO2)2,0.002947822142850498
mvc-11436,AlV2O4,0.02250743574404801
mp-776025,Ti3NbCu2(PO4)6,0.05290948253472294
mp-761592,Li3Fe2CoO6,0.012772724166668858
mp-775299,FeCo(PO4)2,0.055340217291641736