mpid,formula,e_hull
mp-720703,NaUHOF5,0.2552722957175888
mp-1076485,Ca7MgMn8O24,0.17451013036111274
mp-1096801,BaZrP2,0.3111462049218741
mp-556585,MnF2,0.003970499166666031
mp-764971,Li3Fe8(BO3)8,0.06871842783428582
mp-565322,Mn3B7IO13,0.004621912291669972
mp-723043,K2TeH6SeO10,0.0
mp-976029,Ho3Zr,0.0830130437499994
mp-16317,Si5Pt12,0.07321460294117621
mp-753555,Ce3Th2O9,0.0238042507738232
mvc-14257,Mo3O8,0.32967479012987155
mp-1026466,Mg14SbMo,0.13373002406250034
mp-768907,Sr3TeO6,0.022119462999997445
mp-779318,LiCr2P3O13,0.08830014197367575
mp-10318,Tb2Co3Si5,0.0
mp-686588,RbNa10Al11Si13O48,0.09886057591866493
mp-866080,MgSc2Tl,0.0
mp-19957,LaGeBO5,0.0
mp-505424,VCdCuO4,0.03844092392856968
mp-779289,Na6Bi2B4SO16,0.018550142729889533
mp-758140,LiTi(PO3)4,0.08968203231745697
mp-764417,Fe14O15,0.16847530275862432
mp-25051,NdMnO3,0.0
mp-556902,KLi4NbO5,0.0
mp-771441,NaLi2MnPCO7,0.03561918948717846
mp-850180,Li4Fe3OF8,0.1045079529687456
mp-775189,Li2MnFe(PO4)2,0.0012071480952249305
mp-3219,EuPO4,0.0
mp-865878,Ti2TcNi,0.0
mp-5557,ThB4Mo,0.0
mp-6867,KCaCO3F,0.0
mp-10500,Ho5Ni2Sb,0.0
mp-27345,Na3BiO4,0.0
mp-20268,TiGePd,0.0
mp-767732,BaMn4O8,0.000744714663458268
mp-12467,Ca5Sb3,0.0008041709375001815
mvc-12893,Al4(NiO4)3,0.1494355085526342
mp-850987,LiCo2O2F3,0.09822647343749936
mp-571215,Ca2Sb4Pd3,0.0
mp-707277,AgH2C2N3O,0.109139466796913
mp-1072852,CdB2,2.573631132222222
mp-581665,CaIn2,0.4140987416666664
mp-504997,NdCu(WO4)2,0.03345203312500189
mp-770253,Li4Cr3GaO8,0.017236559375001015
mvc-4732,MgCuO2,0.08897493687500012
mp-720464,CsAlH24(SO10)2,0.7850616408333321
mp-778771,Li10Cr3Co2Ni3O16,0.0943267685294149
mp-28507,La8Nb7S22,0.0
mp-19207,Sr2CoWO6,0.0
mp-865025,HfTaRe2,0.0
mp-720283,K2H6PtC4N4O3,0.10196669618750144
mp-674347,Yb4MgGe4,0.010725107820513724
mp-582794,Nd3Ti4O12,0.002269413947363575
mp-12837,Er3FeSi3,0.0
mp-780522,LiVP3H8O13,0.0570843670044372
mp-1077233,SmSnAu,0.09084868333333328
mp-1020594,Zn2SiO4,0.010039457976187549
mp-675430,Sm4Ag2Se7,0.08328776937500049
mp-652048,OsC4ClO4,0.13455137899999947
mp-1030893,Mg6CrSiO8,0.3715204179687461
mvc-3446,CaVF4,0.06581428749999851
mp-550759,RbClO4,0.024082798333332708
mp-862776,TmPaOs2,0.0
mp-568909,Cs2MgCl4,0.0008180528571424261
mp-1099161,YMg14TiO16,0.14933272062499992
mp-1030736,Te4Mo3WSe4,0.04901603500000018
mp-772624,Al2CO,0.07599321625000055
mp-568917,LaInAg2,0.0
mvc-2381,Ca2Ni9O13,0.040602897916667935
mp-971827,Zn2CuPt,0.002907374013159103
mvc-8872,Si4WO10,0.20429011533336985
mvc-192,Zn(FeO2)4,0.17254928490384813
mp-22279,Ba2EuNbO6,0.008964016000010844
mp-1016422,CsMg6B,0.3839946131250003
mp-861932,LiZnAu2,0.0
mp-19644,CoMoO4,0.0
mp-676516,Pr2Pb17Se20,0.015036598141025868
mp-1074149,Mg4Si7,0.2042221669191933
mp-762709,LiTiFe2O5,0.07130348038694656
mp-779383,Mn12O17F7,0.07056111753472473
mp-1033247,Mg6BWO8,0.6086734800520839
mp-1154,Ho4C7,0.0
mp-764893,Li2MnV(P2O7)2,0.0032988422159574426
mp-996987,LiCuO2,0.020346031250000784
mp-1009238,Hf2Tl,0.0008476283333340717
mp-1098754,HfMg30AlO32,0.1059380394023437
mp-631333,LiPdW2,0.9886742600000008
mp-768125,Na3GePCO7,0.07000741113247777
mp-554311,RbCrF6,0.0
mp-974381,Rh2S3,0.0019240639999997808
mp-28306,MnBr2,0.0
mp-977225,LaNd3,0.03740362062499969
mp-976113,LaAu3,0.01608282749999912
mp-567490,Hf5Re24,0.0
mp-28374,S5N5Cl,0.1554556066236401
mp-770816,Dy2TiO5,0.0
mp-20343,NaAuO2,0.026474662500000086
mvc-938,BaMg(CoO2)4,0.16183175279761294
mp-16258,CaCdGe,0.0
mp-765990,FePO4,0.08873970541666676
mp-19053,LaVO3,0.16981239200000076
mvc-9878,LaZnCr2O6,0.1549685377499923
mp-2775,SrAl4,0.0
mp-11449,HfMn2,0.0
mp-1006588,Zn3In2O6,0.0376058111363653
mp-1027884,Mg14FeSi,0.18854338859374967
mp-772333,Li2Ni3SbO8,0.007310092321437089
mp-540724,Fe4Cu2S7,0.21305347961538512
mp-1033127,YMg6AlO8,0.3478024300347213
mp-780775,Sr3Li3Cu3(PO4)4,0.10354744482759147
mp-607138,Sc5Bi3,0.0
mp-613523,Fe3C,0.1194013362499966
mp-734836,ZnH12C6S2(N5O)2,0.06751648365090901
mp-542897,BaIrO3,0.018315634562499745
mp-1094180,HfMg,0.9659975537499994
mp-1016588,Mg6NbSb,0.19742064645833324
mp-737,Hf5Ge4,0.0
mp-976263,Li3Nb,0.7024470850000002
mp-1025926,Te2Mo2WS4,0.07131837499999971
mp-9517,SrTiN2,0.0
mp-764397,Li3V2(O2F)2,0.07306611299241084
mp-1096600,Nb2TcMo,4.231557530000001
mp-560036,Li2Ca3Be3Si3(O6F)2,0.0
mp-976080,Ge3B,0.9856307683333334
mp-769760,Li2AlCoO4,0.06660087406250703
mp-1032324,BaMg6CuO8,0.38133841843750016
mp-975387,RbBaO3,0.5127378929999962
mp-27253,Au2O3,0.0
mp-766094,NbO2F,0.06689289437498935
mp-32463,Li3V3(PO4)4,0.02381988500001597
mp-558289,UAg2(SeO4)2,0.0
mp-557863,K2Ag4Pt3(NO2)12,0.0
mp-1039381,CeMg2,0.08833721888888979
mp-569224,SbI3,0.047346695624999935
mp-540654,RbCdC3(SN)3,0.11099409016233608
mp-1098917,Mg30CdCoO32,0.025570088515625145
mp-675798,NaHoF4,0.0
mp-865952,AcTlAu2,0.0
mp-1009746,ScP,0.5313204499999999
mp-763456,LiP4WO12,0.05332233402777131
mp-17746,HfGePd,0.0
mp-859118,LiAgF6,0.0
mvc-6035,Mg(SnO2)2,0.3961261250000012
mp-1097196,ZnNiAu2,1.5524554112500004
mp-555692,Rb2CO3,0.0013703208333337713
mp-705514,SbHC3(NCl3)3,0.0
mp-574469,BaCoN,0.0
mvc-2659,Mg2Ta2CrO8,0.03017835393162472
mp-560702,BaHgRuO5,0.0
mp-1079890,Al2CuIr,0.0
mp-1028622,Te4MoW3S4,0.1253477939583334
mp-23419,Sb4Cl2O5,0.0
mp-1097596,Sc2ZnRh,2.5047678674999987
mp-759825,BiOF,0.04676296583333173
mp-24198,CrHgH18N6Cl5,0.0
mp-1035067,Mg14CdCoO16,0.03270799765625032
mp-765366,LiVOF2,0.08695677188888506
mp-695536,LaH6S3(NO3)3,0.08396588956902651
mp-1093709,ScCu2Ag,2.03074185125
mp-554688,Ba6Hf5S16,0.008943014814819959
mp-626194,Sc(HO)3,0.014239121071428329
mp-1033211,HfMg6BiO8,0.6857418017187484
mp-567248,Yb4Mn2Sn5,0.07706902954545569
mp-697742,MnP2O7,0.026226729999998533
mp-1034452,Mg14VCdO16,0.06493468882812525
mp-962074,YTlCd,0.37359747249999975
mvc-1735,MgCu(PO3)4,0.00905849819441773
mp-1040341,KCeMg30O32,0.0952442360477912
mp-867897,ScTaRu2,0.0
mp-504353,LiSb(PO3)4,0.0
mp-1028105,LaMg14Mn,0.1126840867187502
mp-764220,LiV2OF5,0.04959480833332997
mp-645316,C7F3,0.25401372656249954
mp-552946,Ba2YIrO6,0.00019652000000025538
mvc-10289,NiO2,0.20692022722222256
mp-558831,KNdPdO3,0.011418492708332728
mp-1031470,Mg6VBiO8,0.36364133091145856
mp-570146,ZnSi4As2(H3C)12,0.04430666318181764
mp-17868,NaAsO3,0.0
mp-779245,Mn3(OF2)2,0.03781260138889042
mp-850292,Dy2H16S3O20,0.0
mp-27895,ErNiB4,0.0
mp-1093601,LiCa2Zn,1.3781483337499996
mvc-11047,MnS2,0.2972919833333334
mp-1022462,Mg6ZrSb,0.1244449664374998
mp-779842,Li2MnV(P2O7)2,0.004655931003835434
mp-19144,Rb2W2O7,0.0
mp-1079168,ThGaPt,0.0
mp-1023507,Mg15Mn,0.0581431493750002
mp-974642,LiAg2Pb,0.019370983333333758
mp-558483,K4LiIO6,0.0
mp-1027838,KMg14Cu,0.14632111031250014
mp-990494,CrInCo2,0.2229062882638901
mp-560054,LuSBr,0.40119246166666667
mp-1021360,KMg6Si,0.2272865362500001
mp-31999,Na2MnO4,0.07882376910714317
mp-31116,LaScO3,0.0
mp-569841,Ba19Li44,0.007735460634920477
mp-568086,NaSn,0.0004408096874999323
mp-600022,SiO2,0.016535381770832913
mp-14116,CuRhO2,0.0
mp-542709,EuSi6,0.1227351664285692
mp-764811,Co6O7F5,0.10972004951388836
mp-18905,FeO,0.4135059175000011
mp-861968,ErCl2,0.13056443944444407
mvc-2636,Mg4Cu5(TeO6)3,0.04800674263888904
mp-1095755,YRh2Pb,2.372812765
mp-573995,Ho(CoB)2,0.0
mp-22811,InCuSe2,0.0
mp-1029491,CsCoN,0.09005296333333224
mp-30982,Ag2SO3,0.059510987500003935
mp-13434,CaMgNi4,0.003329576666667221
mvc-10511,CaFe2(CuO4)2,0.22271746663461567
mp-14039,K2NaRhF6,0.0
mvc-11235,BiN,1.1587584413100007
mp-704183,LiMo2PO8,0.04047455974206393
mp-775001,V3FeO8,0.08004295000000639
mp-25603,LiNi(WO4)2,0.0896829853645853
mvc-3988,Ca2Fe2O5,0.06728965638890028
mp-983556,Er2MgTl,0.0
mp-557600,SbC2N(OF3)2,0.08342152985375062
mp-780173,Na5GdO4,0.025657196374996083
mp-570535,NiH20(C4N5)2,0.053022000586153695
mp-24563,Ga2P3(HO3)3,0.025120219264708855
mp-1092318,TmInAu,0.0
mp-557874,KAg(PO3)2,0.0
mp-780017,Li3Cr2(FeO4)2,0.04925098885186152
mp-976892,Na(TeMo)3,0.0
mp-18162,Li(CuO)2,0.010602207500000738
mp-730460,Na5H3(CO3)4,0.0
mp-580631,Cs2KTbCl6,0.0
mp-978288,MgNi,0.05546015166666685
mp-583034,Ba2U2O7,0.0
mp-5025,Zr2CS,0.0
mp-627632,Si4H2O9,0.04320918749999958
mp-998973,TiFeCoSb,0.1975739375000014
mvc-13418,La2ZnFeO6,0.001672845187500549
mp-850253,LiFe2(BO3)2,0.05354188107957114
mp-1022326,HfMg6Zr,0.1118610474999997
mvc-4408,Ge3(MoO6)2,0.13356387014705629
mp-19293,Sr2FeO3F,0.004997116250001099
mvc-1930,Ti9Zn2O13,0.24975784208332996
mp-12929,SmAsO4,0.0
mp-1077097,YbZnPb,0.0
mvc-13644,MgSbO3,0.19728810625000204
mvc-8429,ZnGe2WO6,0.15788289608333805
mp-766447,Li2Cu4S3,0.07685784111111094
mp-722516,Zn2PHO5,0.0015880009722213373
mp-775604,Li6Cr3Cu(PO4)6,0.055485448312519565
mp-21456,SmMgIn,0.0
mp-3405,NaAl11O17,0.0
mp-981367,SrTlO3,0.2370037227499981
mp-653811,Sr2NdCu3(PbO4)2,0.016812110000000942
mp-1080218,MgMn4O8,0.04638657187499007
mp-850106,Li3(NiO2)4,0.009674465166674471
mp-561577,Cs2Pd3S4,0.0
mp-2956,Co2(GeS)3,0.0
mvc-12584,V4ZnO8,0.10081735730769736
mp-764524,Li3Fe8(BO3)8,0.07439899527614635
mp-1022684,YMg6C,0.4690478071249995
mp-568224,Sm3CuSe6,0.0
mp-748,Ti5O9,0.008095947142841453
mp-542842,KMnP3HO10,0.0
mp-1371,Sn3Pd,0.004286836250000371
mp-782034,YNb2NO5,0.08526297583333609
mp-669495,Nd14Cl32O,0.1332044218439714
mp-17756,RbAg2SbS4,0.0
mp-626500,Al(HO)3,0.054219201785715036
mp-14288,Sr3P4,0.0
mp-1029791,MgSnN2,0.0
mp-19065,Ho6WO12,0.0
mp-1093659,Ca2AlTl,1.8157390675
mp-18958,UMoO6,0.0
mp-7100,LaOF,0.0
mp-1095962,LiAg2Bi,1.3820291575
mp-555893,Pr3CuSiS7,0.0
mp-625937,H7NO6,0.029214617321429163
mp-573815,ReI3,0.0
mp-582357,Eu(FeSi)2,0.0
mp-768678,LiSn2(SO4)3,0.061974322916663376
mvc-3351,MgWF4,0.4809304083333341
mp-554879,CuHgSBr,0.028853436458333718
mp-735547,MnP(HO)7,0.3849444707031244
mp-31322,La6OsI10,0.0
mp-1097093,MnCuRh2,2.81120163
mp-557468,K5V3F14,0.0
mp-677028,RbBiF3,0.10353738466666584
mp-34330,MgAl2O4,0.05107502785714235
mp-1080365,CeSe2,0.5462626098611123
mp-759441,LiCu(PO3)2,0.08420886441665854
mp-19481,Rb2V(PO4)2,0.0
mp-695817,ScF3,0.9066563900000002
mp-1079097,ErMgAg,0.0
mvc-9866,LaZnCrCoO6,0.1748578660921094
mp-1013585,Sr3BiSb,0.31170238666666705
mp-570498,Pr4C2Cl5,0.0
mp-1026787,LiMg14Ga,0.01442278375000017
mp-980005,AcYbRh2,0.0
mp-1098352,NaMg30TiO32,0.017958288289931627
mp-3031,BaSi2O5,0.0
mp-22665,AgAsPbS3,0.0
mp-12940,HoIn5Rh,0.0
mp-1076718,Sr2Mn2O5,0.025163862222245648
mp-1093765,HfAgAu2,2.14526023
mp-28133,Gd3CCl3,0.0
mvc-11990,Ni3(P2O7)2,0.05819015934523807
mp-17706,Zr5Ge3,0.0
mp-1018638,Tb3AlN,0.0
mp-14493,Na5InO4,0.0
mp-29677,Ho3AlC,0.0
mp-758325,Li2CuSiO4,0.0806994550000022
mp-763786,Li6Mn(OF2)2,0.1056968548717938
mp-7703,DyTaO4,0.0
mp-643718,BaMgH4,0.0047589162499988005
mp-772365,K2MnO4,0.01974453142859467
mp-961694,TiNiGe,0.6636133383333398
mp-866069,MgScRh2,0.0
mp-761751,Li7V3P8O29,0.016155204636517873
mp-1263,URu3,0.0
mp-570558,Rb2NbCl6,0.006385948888889104
mp-1098677,CaMg30CoO32,0.026933108671874702
mp-561254,NaLi3GeO4,0.0
mp-20174,Ni3Sn4,0.0
mvc-9074,Sb3O7,0.10971830875000688
mp-9810,TlFeSe2,0.05355672462499772
mp-761452,Li2Fe(Si2O5)3,0.09829465591145856
mp-1023161,CaMg6Mo,0.21419709937499976
mvc-6922,CaSi2NiO6,0.06140002012499756
mvc-13217,V4ZnO8,0.1692079126923005
mp-774179,Li5V3P8O29,0.033871211129613776
mp-15727,La(P3Ru)4,0.0
mp-811,BaPt5,0.0
mvc-10046,Ca(CoO2)2,0.12852228226189233
mp-19865,Ce(MgSi)2,0.0
mvc-966,BaCa(MoO2)4,0.4752559935714356
mp-758450,LiCu3(CO3)3,0.08358622367187518
mp-11447,UTe,0.07529000083333415
mp-25614,LiNiPO4,0.0
mp-510566,La3CuSnS7,0.0
mp-557491,BaZnO2,9.407583333409521e-05
mp-758890,LiAg2F4,0.06901807142857043
mp-760078,Ba4Ti11O26,0.03301580041463836
mp-1019100,SmFeSi,0.0
mvc-3579,Mg3V2O7,0.07721230791667999
mp-573281,KNa3Al4(GeO4)4,0.3328376126934529
mp-978278,Na(BH)6,0.0
mp-13595,Rb2UF6,0.0
mp-22145,Sm3(Ge2Ru)2,0.010261207777775285
mp-676861,AlSbO4,0.0
mp-1099241,Mg6MnSnO8,0.2076656128125008
mp-622508,GdSi2Rh3,0.0
mp-8998,TaNiTe5,0.0
mp-765602,Na5Ni9O16,0.02497189583335313
mp-2235,YbRh2,0.0
mp-764053,V3OF11,0.04066390349999427
mp-1070147,Cd(NCl)2,1.9827293830480004
mp-782696,Li4Mn(PO3)6,0.05919421853443917
mp-777032,Li3V5O12,0.027355642874988817
mp-763354,LiVPO5,0.06193635843751099
mp-561617,FePO4,0.02157960291666684
mp-1009489,RbTe,0.44314366250000026
mp-18914,K2MoO4,0.0
mp-9639,BaCu(SeO3)2,0.0
mp-720860,H9CSO7F3,0.1108524025000035
mp-582282,GdAgSe2,0.014007762499999464
mp-639662,CrF5,0.0
mp-1037959,YMg30MnO32,0.06345572585187575
mp-767075,LiVSiO4,0.01094748223214026
mp-769824,LiCoBO3,0.01587638125000268
mp-642736,K3H5Pd,0.007855984444443909
mp-9359,ZnSi(AgO2)2,0.036277318020832006
mp-763693,Li3Mn5O10,0.05620893258929893
mp-769167,EuYO2,0.0995713956250004
mp-1035830,Mg14ZnCrO16,0.03985828593750007
mp-602328,Ce(InPt)2,0.0064561400666658395
mp-773510,TiV2CrO10,0.09480939776785567
mp-26327,Li6Bi3P8O29,0.05260922443388427
mp-756817,Li5Cu5(SbO6)2,0.05935010729166468
mp-770222,Li3MnV(PO4)3,0.04522405506246585
mp-605252,DyGaCo,0.0
mp-707096,K2P3H7O9,0.00825827997391837
mp-6257,CsNb(BO3)2,0.0
mp-27866,MoS2Cl3,0.0
mp-570559,CdI2,0.0010994095555556527
mvc-13598,YBiO3,1.1024349917499991
mvc-8861,TaTi(PO4)3,0.0
mp-20509,Ba2Y(CuO2)4,0.33701333733333705
mp-559792,Nd2As6Xe5F46,0.0
mp-24119,Ca2HN,0.0
mp-762533,Li2Fe2(SiO3)3,0.07740401124999696
mp-767545,Na3ZnPCO7,0.0
mp-1077379,NdCdNi4,0.0
mp-19070,Sr3Mn2O7,0.023153649027812584
mp-769995,VSO4,0.06074316161522919
mp-977537,ZrCdRh2,0.0
mp-7984,KOsF6,0.0
mp-1094323,SrMg2,0.2637932491666666
mp-613327,Fe(BW)2,0.092775786999999
mp-1025022,HoInPt4,0.05497725541666654
mp-857354,LiSn3Sb(PO4)6,0.012771434714286656
mp-19174,BaMnV2(AgO4)2,0.017654389071429574
mp-998298,CsSnF3,0.01127547399999962
mp-438,Nd2S3,0.0
mp-481,ScPt3,0.0
mp-1078787,Sm(AlAu)2,0.0
mp-31495,AgTe2Au,0.21183332479166594
mp-628715,KEuPSe4,0.006249721428572386
mp-25150,CaVO3,0.002103073499998942
mp-769457,Li4Ti4Cr(Fe2O9)2,0.08818804018636682
mp-685926,Nd10US16,0.03957769000000155
mp-764114,Li4V3P8O29,0.04656655825758005
mp-8982,CaSiPt,0.0147568033333334
mp-17977,Fe12As5,0.0469993485294129
mp-763025,LiCr(PO3)4,0.02719643324073306
mp-1073851,MgSi,0.257271948333333
mp-980188,RbYb3,0.20092026
mp-973957,La2ZnAg,0.01654631750000002
mp-752675,BaYF5,0.00014371357143172506
mp-1925,ZrS,0.08763964999999985
mp-672644,KNO3,0.06574850800000133
mp-556296,BaS3,0.02663432625000084
mp-767234,Li4Fe2Co3Cu3O16,0.035603796506696206
mp-753148,Li2Cu7F16,0.08025945619999941
mp-1094302,SrMg3,0.18306704437499974
mp-769390,Ca3Ta2O8,0.030685123571414508
mp-1094971,MgGa3,0.07615396312499903
mp-623463,TbMn5Ge3,0.27260963194444804
mp-574013,Th2Co17,0.109144737894737
mp-510717,Ba2Co9O14,0.052714966199999935
mp-531523,LiGa5O8,0.004877664821426818
mp-25057,VMoO5,0.016358200892858218
mp-764110,Co2OF3,0.0857514010416649
mp-579919,Cs2ZnN12,0.00923247404266725
mp-771676,MnSbO4,0.07727683909722494
mp-16471,Np(GeRh)2,0.0
mp-19368,Sr2V2O7,0.0014394792045440141
mp-774351,Li3Cr3(CuO6)2,0.06054332112499682
mp-1094451,Mg3Zn,0.012280925200000459
mp-28796,Sr5(AuO4)2,0.0
mp-1080181,Pr2InNi2,0.0
mp-2536,Ni2B,0.0
mp-15204,Tb2Si5Ni3,0.0
mp-27559,Na14Cd2O9,0.0
mp-641533,InAs,0.20145854666666674
mp-541053,SiI2,0.025937666277779936
mp-755685,SmYO3,0.06343879237499905
mp-673669,In4(SnO4)3,0.0390819944736851
mp-567713,Nb3TeI7,0.0019175122727270735
mp-27767,Li6Si2O7,0.015049620000001871
mvc-3524,YVF5,0.1732912232142736
mp-849330,Li2V2CrO6,0.061375089024593876
mp-762416,Li13Mn8O24,0.0622148331249992
mp-22646,InPd2,0.0
mp-765543,Sr3(RhO2)16,0.0
mp-573642,VNiSb,0.1272022704761877
mp-1080511,BaMg(CO2)2,0.5073392878125
mp-573479,Fe3NiN,1.9442068536666657
mp-8516,CdSO3,0.07295250724999924
mp-23516,Cu2Cl2O,0.012559966999998728
mp-763018,FeOF,0.05915812027777712
mp-25486,CoH8(IO5)2,0.011390885357141832
mp-1009005,IrN,1.5050197088100008
mp-769211,Tb2Pb2O7,0.0
mp-19440,LiVO3,0.0
mp-13961,NdAs2,0.01650096583333216
mvc-11394,MgCr2O5,0.2519346759375063
mp-770545,LiAlCrO4,0.07676278482539356
mp-1079560,Nb2CrB2,0.0
mp-27826,K2MoCl6,0.0
mp-559191,Co3O4,9.56742857152193e-05
mp-1239,Sb3Ir,0.0
mp-567258,LaZn2,0.0
mp-720,TlF,0.0
mvc-10400,BaZnSbF7,0.056678249749999125
mp-1075405,Mg5Si6,0.2074711318181812
mp-1035030,NaLaMg14O16,0.11626319140625085
mp-766118,BiP2O7,0.05813045043749821
mvc-16217,ZnBiF5,0.08043404035714287
mp-706291,Ca2B8H2O15,0.0
mp-1094038,TaS3,0.8374142079166678
mp-697855,Li2Cr3(P2O7)2,0.035187889710119435
mp-761670,LiCoPO4,0.08498905982142979
mp-19400,Sr2NiWO6,0.009820628999997359
mp-556999,ErSeO3F,0.001966676666664391
mp-600369,V3H8C2NO7,0.17199305154762
mp-1097350,TaAlTc2,3.9157259742857136
mvc-3623,Zn3Fe2O7,0.12572904072916558
mp-644751,BN,0.27128462499999983
mp-15501,Sr4TiAs4,0.0
mp-974365,RuAu3,0.3926822775000005
mp-12174,HfNi3,0.0
mp-626193,Sc(HO)3,0.016414764285713982
mp-763061,LiNiPO4,0.07418417035714686
mp-1100592,Li9Mn2Co5O16,0.09942399406246327
mvc-1993,ZnSbAs2SeO7,0.1989979409299032
mp-752706,CeZr11O24,0.01745413680554897
mp-2748,CeAs,0.0
mp-1078980,Eu2ZnP2,0.0
mp-1028162,Mg14MnV,0.17098257562500008
mp-1078858,U3Si,0.0014444724999993495
mp-730473,CuP2(H2O3)2,0.18561032701281727
mp-674298,Al22CdO34,0.0252365269298247
mp-767834,Sr2MnCO3F5,0.01816386281249116
mp-1078623,Zr2BIr6,0.0
mp-771533,CoPO4,0.01931325229166525
mp-22186,In6Ge2PtO9,0.0
mp-28734,Zr6CoCl15,0.0
mp-699375,Co8As3O16,0.04507285750002499
mp-535,Fe4N,0.018386896000000874
mp-27812,RbTiI3,0.03755626288888747
mp-774336,Li3BiS3,0.0961758985714294
mp-758997,LiCuCO3,0.09068850368055514
mp-568590,SbCNCl5,0.13166716723958416
mp-740,NdTe3,0.0
mp-977056,MgPt5,0.06265035166666788
mp-29156,NaTa3N5,0.039959337619045236
mp-1021489,IrO3,0.11177715343749917
mp-763526,LiP(WO4)2,0.039576965715813366
mp-1022216,Mg6GaFe,0.16366349625000076
mp-1078861,Mg(BrO3)2,0.0
mp-557704,TlNO3,0.003912318583331853
mp-862316,LiBePt2,0.0
mp-755236,HoTiO3,0.0596479910000145
mp-19067,Mg3V6(FeO6)4,0.0
mp-555109,TmNbO4,0.0
mp-684055,Tl7Bi3I16,0.00961317256410199
mp-623373,V7O13,0.01678338187499939
mp-720334,Na2P2H14O13,0.017875260564515827
mp-1094146,PC2,0.8091638817460316
mp-765313,Li4MnO2F3,0.09242586999999867
mvc-10491,CaSn4O9,0.1593721060714275
mp-532405,MgAl6O10,0.0405080285294126
mp-867317,Cu3Si,0.011505095499998673
mp-978832,Sm3Pd,0.27313098250000056
mp-1031661,KRbMg6O7,0.6367579924166655
mp-17435,Zr4Fe4Si7,0.0
mp-23216,SnBr4,0.0
mp-973534,FeRe,0.10018008178571414
mp-1028653,Te4MoW3Se4,0.036973407291668536
mp-29993,TaAgF6,0.0
mp-505495,KP4N7,0.0
mp-867238,SmPb3,0.0
mp-1080746,Dy(NiBi)2,0.18213438400000287
mp-989641,LaOsN3,0.020735894999999616
mp-1035697,KMg14FeO16,0.11772365169921885
mp-1077423,TmAlZn,0.0
mp-12305,Sc11Os4,0.0
mp-22643,Tb3(CoGe2)2,0.012002142222222293
mp-976783,Ge3F,0.42663448687499983
mp-769629,Mn2V3P6WO24,0.026712688402831475
mp-9381,Zr6FeTe2,0.0
mp-706518,TlCrO4,0.011332960069443844
mp-1029711,NaVN2,0.0
mp-616140,Cs5SiAs3,0.0
mp-865747,Y2MgGe2,0.0
mp-756580,SrLu2O4,0.031357381785712235
mp-1077033,YbSe2,0.1714305638020832
mp-1023306,Mg6AlCd,0.04622306105769236
mp-769704,Li3MnPCO7,0.09394230769231182
mp-601614,H7WC7NO5,0.3844710977976202
mp-693759,Zr12Si2Bi2P16PbO72,0.009134090301586184
mp-560569,KPrPdO3,0.006683118749998052
mp-13245,Tb(P3Ru)4,0.02566305117647261
mp-1083,NpB2,0.0
mvc-9524,Mg(SnO2)2,0.2695451119047627
mp-1030107,Te6MoW3Se2,0.03644560541666575
mp-771043,Y2Zr2O7,0.058050933636351935
mp-5918,Hf2NiP,0.0
mp-1028339,CaMg14Co,0.10307924929687484
mp-23879,Ca(HO)2,0.0
mp-672681,Nb8Zn4C3,0.21328305166666706
mp-983362,Hf2FeTc,0.0
mp-767585,Li3Cr4(PO4)6,0.08071078753378025
mp-767715,Li34(Sb3S2)3,0.08274228935374106
mp-1007694,SnPO4F,0.0
mp-763292,Ti3Mn3(SbO8)2,0.08432928454859479
mp-770312,Li24Mn7Cr5O36,0.010044769583333668
mp-722780,Pr2P3(HO2)5,0.013199971289238556
mp-30938,PAuS4,0.0
mp-571415,Ba3(PSe4)2,0.01268616826923008
mp-1022611,Mg6ZnSn,0.06381759572500023
mp-11722,PrGe2,0.04187894916666579
mp-763067,FeOF,0.12091886555555398
mp-1062842,MgF2,0.2967690066666666
mp-30078,C3S8,0.17960483905843996
mp-763594,LiCoSiO4,0.0956784645714146
mp-763824,Ba2LiVP2O9,0.08950714604167409
mp-744775,NaFeP3H7O13,0.0015408106499981145
mp-21701,UFe5Sn,0.06251502864285817
mp-1072037,HoCuGe,0.04208619500000044
mp-680381,K2Na2Gd4Nb2O13,0.0
mp-23118,CsEr6CI12,0.0
mp-1033731,Mg14BCO16,0.3274169790820309
mp-977212,NpMn3,0.2312820328124996