mpid,formula,e_hull
mp-974416,Re3W,0.12679198624999802
mvc-3749,VF5,0.03179041333333288
mp-973508,KRb3,0.010734542500000166
mp-540479,Li2V(PO4)2,0.04814150903845693
mp-762164,Li4Nb2Co3Ni3O16,0.04245809399999168
mp-763085,LiMn2F7,0.02150536041665596
mp-1026795,LiMg14W,0.15682210312499967
mp-1022659,RbMg6Zn,0.2579310044750003
mp-19358,SmMn2O5,0.0
mp-632291,H2,4.440892098500626e-16
mp-557938,HfVF6,0.0
mp-9853,LuP5,0.01927165626984096
mp-1033793,HfMg14BiO16,0.35856769617187645
mp-28679,NaGaBr4,0.0
mp-773533,Na2NiAsCO7,0.01278633765625603
mp-703283,Sr2La2Mg(RuO4)3,0.012832106458327884
mp-1077133,GdCoSi,0.0
mp-571619,HfAlPt,0.0
mp-22492,Mn3GeIr,0.13356861838889245
mp-504211,LiSn(PO3)3,0.016486703601189312
mp-675101,Ca5NbN5,0.0
mp-776246,Zr2N2O,0.004695077500000977
mp-643070,Ca4Mg3H14,0.0021888371553884234
mvc-9660,PrMn2ZnO6,0.13142012900000033
mp-1062893,YPd2,0.27832855833333525
mp-989527,Cs2NaNF6,0.0
mp-3547,MgSiO3,0.2154466667500028
mp-554225,CsFeF4,0.0
mp-1094911,Mg2Cd,0.032023064166667004
mp-1023360,CsMg6Al,0.33164520605769265
mvc-16765,Al(CoS2)2,0.20552734803571585
mp-765229,V2F7,0.002082217777765294
mp-10455,YTiGe,0.02226406999999764
mp-2955,NaMgF3,0.0
mp-3859,Ca2B2O5,0.006316496944445582
mp-865152,MgAlPd2,0.0
mp-761572,Li2TiCoO4,0.058927456250000176
mp-1076088,Mg2Co2O5,0.1826191255555587
mp-1079724,Pt(NCl)2,1.4019252987146666
mp-569737,Tb(SiPt)2,0.0
mp-9167,SrCN2,0.005276074999999381
mp-554061,MnSbS2Br,0.01981742500000116
mp-11893,K2Pd(CN)4,0.10020325465909163
mp-1079107,Co(N3Cl)2,2.6715458195244466
mp-777563,Ta2H15N6Cl7,0.09112390413055672
mp-1094358,Mg3Ti,0.21006860395833327
mp-672227,CaZn13,0.0049279699999993385
mp-18115,K2Sn2Hg3S8,0.0
mp-765608,Na7Mn11O24,0.02157893047621151
mp-637210,V8O15,0.014150611847810525
mp-705824,Cd(FeO2)2,0.026999666666666755
mp-621351,SmInAu,0.0
mp-760417,Rb4I2O,0.0
mp-771498,Li4Ti3Fe5O16,0.143815297796559
mp-1077428,NdCu4Ag,0.0
mp-650449,Gd2(MoO4)3,1.0633823688266377e-06
mp-647305,SiAg5ClO4,0.026579217556819586
mp-705502,NaCa9TaTi9(SiO5)10,0.0016320907187488132
mp-27953,Mo2N,0.008924994583333401
mp-16486,Ce(Al2Fe)4,0.0
mp-1234,LuAl2,0.0
mp-1033445,SrMg6CdO8,0.2363420500000011
mp-1096,CeS,0.0
mp-1099048,CaHfMg14O16,0.1553438644531253
mp-867909,ScCdRh2,0.0
mp-763066,Li6Fe3Co7O20,0.029530749991319105
mp-1403,Sm2S3,0.0
mp-771827,Ca3Pb3I14,0.08317357974999995
mp-1029179,MoW(SeS)2,0.03122300000000067
mp-1096524,La2CuGe,2.2153633856250003
mp-866863,Ca3SnS5,0.20720336944444465
mp-625572,H5BrO2,0.009463738124999566
mp-781065,Fe2OF3,0.08119096250000712
mp-772457,CrNi(PO4)2,0.09026341944445716
mp-1080066,LiTmSn2,0.15529946491319446
mp-764818,Fe4O5F3,0.08234959557291699
mp-1097122,Be2IrRh,3.3247081649999988
mp-862729,Sr(DySe2)2,0.0
mp-705159,K2Co2(MoO4)3,0.04279398638157962
mp-559514,Nd4S3NCl3,0.0
mp-763438,Li2VF6,0.018033672500012088
mp-1094486,Mg5Ti,0.1124099238888916
mp-561123,U2AuF11,0.22504072249999485
mvc-6246,Ca3Sn3(AsO4)4,0.11200076326007392
mp-973908,PaFe3,0.0
mp-1080573,V3PC,0.0
mp-760679,Cu3OF5,0.02072160079861174
mp-866012,Hf2ZnRe,0.0
mp-570942,La3C3Cl2,0.006912494270831182
mp-6622,BaNd2Ti3O10,0.007713129687500597
mp-1022652,BaMg6Zn,0.16477462048214253
mp-16788,Gd2SiTeO4,0.01992547687500412
mp-7324,KBePO4,0.0
mp-768051,Li3TiCo3O8,0.08131044283339328
mp-638676,Nb2Co4O9,0.011076918333335684
mp-2098,CeOs2,0.0
mp-752947,NaTiS2,0.007324152499999845
mp-766967,Li2Mn3(Si3O8)2,0.0434353997222221
mp-775597,Li3Cr2(PO4)3,0.006378339999866256
mp-775054,Ti3Mn3(TeO8)2,0.04822659971353716
mp-540173,LiV(PO3)4,0.01569042041667501
mp-579560,Cs3Sb2Br9,0.0
mp-1099131,RbMg14MnO16,0.1844058559895841
mp-556434,AgBi(PS3)2,0.0
mp-674514,In5CuS8,0.014610623750002103
mvc-5316,SnO2,0.22329231999999968
mp-1078667,GeH4,0.13804548910399994
mp-1028432,CeMg14Fe,0.1461629471874999
mp-1029147,Te2MoW3(Se2S)2,0.04240659083333398
mp-1098713,Mg30AlCrO32,0.05198394421875197
mp-28224,Hg2AsCl2,0.024958947999999648
mp-565326,KFeAs2O7,0.0
mp-761042,NaCu(PO3)3,0.01101655080357844
mp-1093794,ZnSnRh2,2.418588648125
mp-770613,Tb2WO6,0.07458727833333434
mp-4181,Pr2CuO4,0.0
mp-778298,Li3V4O7F5,0.0926959077485252
mp-989388,Rb2SCl6F,0.0
mp-6036,CaCu3(RuO3)4,0.025012920874999626
mp-1094817,CaMg2,0.17654427916666648
mp-861513,Rb5SiHO5,0.0
mp-775734,Li5V6(CuO4)6,0.05080743500000296
mp-560110,BaUTiO6,0.0
mp-699658,Na4VS3O13,0.0
mp-570857,Y(AlCl4)3,0.0
mp-677573,NaCa2Mg2(AsO4)3,0.0
mp-18090,Ba3TaAs3O,0.0
mp-861504,PrBO3,0.0
mp-626423,FeHO2,0.5011364346875
mp-763401,LiV(PO3)3,0.02492105067006101
mp-1074433,Mg4Si3,0.19783959087301686
mp-983234,Sm2Ge5Ir3,0.0
mp-1026484,Mg14BMo,0.34180353734375
mp-20708,In2Ni3S2,0.0
mp-1009077,FeH,0.0
mp-961724,ZrBiRh,0.5408070313333333
mp-862949,NaPmTl2,0.0
mp-567330,TiCl3,0.028323638125000283
mp-782050,Ba4PdO6,0.0
mp-772684,Cr(PO3)2,0.007325844844462638
mp-770780,MnP2O7,0.03336138999999872
mp-683875,TeS7Br2,0.0
mp-764408,LiMnF4,0.01175584791665596
mp-760244,Ca4Nb2O9,0.016216419666665868
mp-762587,LiFeSiO4,0.05687544124999366
mp-1097369,Ta2ZnRe,4.1572106523437515
mp-1095083,Sm2CdGe2,0.0
mp-778229,Li9Cr3(WO4)7,0.10593555574468104
mp-11232,YAl3,0.9474861362499992
mp-775350,LiVSiO4,0.0651569227678559
mp-781130,Li12MnV7(PO4)12,0.011985683625021615
mp-774279,Li(FeO2)2,0.1083575466964275
mp-632815,Li10Ge(PO6)2,0.07044116380000176
mp-761098,Li3Cu3(PO4)2,0.07876694015625141
mp-772187,AlGaO3,0.028800921499999355
mvc-2146,Zn2CoN2,0.14388886218965435
mp-861584,VPO4,0.07084850472222115
mp-13974,Ho2SeO2,0.0
mp-23763,SnH8(NCl3)2,0.0
mp-861176,Li2FePO5,0.0893209348611057
mp-556454,SiO2,0.008223419374999708
mp-22251,TbGaPt,0.0
mp-677013,Na3Pb2S3ClO12,0.0
mp-766864,LiVF6,0.054645652499999635
mp-1017360,NaSrMg6,0.14118733075892842
mp-1094709,Mg3Sb,0.2300386237500005
mp-23750,SiH9C4F3,0.2984455706862734
mp-2269,UTe,0.09819207583333434
mvc-9854,LaMgMnCrO6,0.10598252934375728
mp-773183,LiVSiCO7,0.09148018431818272
mp-1069443,CeAl3Cu,0.0
mp-650499,Cs7Co4F15,0.0
mvc-10011,CaCr2O4,0.07817538821429437
mp-23178,WCl6,6.027857143386939e-05
mp-984871,BaAgBi,0.28476201384615285
mp-849690,LiFe4(BO3)4,0.0681290782142856
mp-778713,Na2Ni2O5,0.04454878841666865
mp-763636,Li2Mn3NiO8,0.07671894732142892
mp-18885,LaCrS2O,0.03371515600000041
mp-690571,In2(HgTe2)3,0.2554993463636359
mp-566150,In2Cu3(PO4)4,0.0010944805999972829
mp-753669,Hf(MnSn)6,0.0
mp-2331,B2Mo,0.003062911666665613
mp-989591,K2BrCl6F,0.0
mp-1024087,Zr63S128,0.028777927015708468
mp-767415,KNbPCO7,0.1218956355454539
mp-565206,K5In(MoO4)4,0.0
mp-1073456,MgSi2,0.14421897759259486
mp-866832,Ca2SnS4,0.2058662335714274
mp-775304,Na9LiFe10(SiO3)20,0.0018508580999867519
mvc-10139,CaCu2(BiO4)2,0.1950110155769238
mp-1027713,TeMoWSe2S,0.0787570183333326
mp-4911,Th(CuGe)2,0.0
mp-1095825,Al2FePt,2.5358689337499984
mp-1036047,Mg14MnNbO16,0.12503764383160745
mp-2493,CeN,0.0
mp-19848,PrCuSb2,0.0
mp-849702,CrAgO4,0.42324468499999934
mp-570156,Zr3Al3C5,0.3455082922727275
mp-11455,HfPt,0.17954937000000015
mp-25533,VFeH2O5,0.00669520138888835
mp-775657,Li4Ti2Co3Sn3O16,0.0759175748213945
mp-767433,LiV2OF5,0.04136814203703931
mp-566325,KEu(MoO4)2,0.0
mp-1033996,HfMg14TiO16,0.17127184300781284
mp-770598,Li2CoH8(CO5)2,0.02533530304347842
mp-704203,Li2VP4O13,0.04614317933332668
mp-1027164,TeMoWSeS2,0.10826795416666712
mp-780509,Li3Mn4(BO3)4,0.03971332481882151
mp-997591,CsNa7Ta8O24,0.04777857324999778
mp-767987,LiNiPO4,0.06721605892857507
mp-1097921,CeSe2,0.20949056125
mp-569739,ErAl9(Fe2Si3)2,0.0
mp-1079543,PbS,0.1639517399999999
mp-559902,TeC4(BrF3)2,0.4417919825961541
mp-1093694,Ba2CdSn,1.5209448462500004
mp-764523,Li7Fe8(BO3)8,0.06582657904255029
mp-614383,InAg(WO4)2,0.018260151666668282
mp-7652,Na5TlO4,0.0
mp-1027926,LiMg14Fe,0.08572229062499992
mp-1074192,Mg4Si7,0.2150145378282841
mp-642831,RbP(HO2)2,0.0060171662499985965
mp-777526,Fe10O19F,0.11762911806249846
mp-1013562,Ba3SbAs,0.22951758941538536
mp-662804,Sm10Pd21,0.0
mp-555861,Na2Th(PO4)2,0.0001547375961559183
mp-762616,Li2Mn2(PO4)3,0.02064260336623125
mvc-12140,BaYCo4O7,0.022839761153859328
mp-631549,HfGeB2,2.04357146875
mp-568511,Ca7(B7Rh10)2,0.0
mp-22044,Sm2Ge2Ru,0.0
mp-1077706,Cr2Co,0.2853109227777786
mp-555207,BN(OF2)2,0.0
mp-780922,Na5CrO4,0.08095221999999946
mp-541597,BaYb2CoO5,0.0
mp-770272,RbFeO2,0.005544519999999943
mp-21117,FeGe2,0.0204478894444442
mp-554774,RbLu(SO4)2,0.0
mp-568039,Cs(WCl3)3,0.0017146402564094387
mp-554140,TlV3(CrS4)2,0.012204859285712466
mp-1025344,V(CrTe2)2,0.008500226666664723
mp-868586,LiMn(PO4)2,0.08730645072916943
mp-1094266,Mg3Ti,0.2237086408333333
mp-1023490,Mg15Cr,0.07536547187500009
mp-645695,La3LuSe6,0.0
mp-1028823,MoW3Se8,0.00101824250000071
mp-1077525,U2S,0.9430564666666684
mp-632402,LiCaUF8,0.025449056363639144
mp-851314,Co3Ni3(TeO8)2,0.06343199338541616
mp-1028761,TeWS,0.09732926791666774
mp-780921,CeCrO3,0.05687427777272625
mp-764739,MnFeCo(PO4)3,0.022568402916679275
mp-31983,Mn(SeO3)2,0.0
mp-21443,Ce2Pd2Pb,0.0
mp-541875,K3SnSe3,0.0
mp-2119,TbC2,0.044041401874999934
mp-1093730,CdRh2Pb,2.087022222083333
mp-23122,Li10B14Cl2O25,0.0
mp-25546,Mn(HO)2,0.0048715105000018966
mvc-2833,Ca4Cu5(TeO6)3,0.1347802977499999
mp-641366,BaWO4,0.0519580516666629
mp-10348,LaSc3(BO3)4,0.0002109089999997593
mp-766932,Mn5O7F,0.07798415519231128
mp-30999,CuCl2,0.0
mp-759382,Li2Ti7Nb6O30,0.05473895016666397
mp-636675,Ga2I3,0.0
mp-29015,CaThBr6,0.05330740812500069
mp-681992,Zr5Pb3,0.0
mp-27727,CCl2O,0.01682868835937601
mp-912109,TiBe2,0.0
mp-975652,PrTe2,0.0
mp-770448,La2Ti3O9,0.08581256374997892
mp-4764,Pr2SeO2,0.0
mp-6468,BaNd2ZnO5,0.01247367490741702
mp-707821,Ru3C10I2O9,0.32115370979166696
mp-761711,Li4V3SiO10,0.07306175631946132
mp-15669,Ti3Te4,0.0
mp-772185,Li6Hf2O7,0.0
mp-775533,Li5Mn2V5O12,0.05496227833333656
mp-572409,Ga2RhC4Cl7O4,0.12827866074074026
mp-1358,DyIr2,0.0
mp-1020591,Rb8NO3,0.2355812444444463
mp-767632,VPO4,0.004248937083332294
mp-8123,TmCuSi,0.0
mp-578727,Rb2Cr5F17,0.0
mvc-9198,TiZnCr(PO4)3,0.01067853861110013
mp-3922,AgSbS2,0.0
mp-865860,Li2TmIn,0.0
mp-617283,Cu2AsClO4,0.04116888656250328
mp-1016549,BaMg6Cd,0.15418537431034385
mp-1040233,KMg30BiO32,0.08666046273437811
mp-559377,IOF3,0.0
mp-1098867,YMg30NbO32,0.1047885133300781
mp-998457,CsSnF3,0.0
mp-645206,CuReO4,0.0
mp-1077581,EuPPt,0.0
mp-22209,Cr3AsN,0.041410964499998926
mp-1079191,TbCuSb2,0.0
mp-2465,DyPt3,0.0
mp-1027072,Te2MoWSeS,0.09487808833333396
mp-571400,Dy3Se4,0.0581018992857123
mp-13286,CaGe2,0.006907943333333222
mp-30795,Na2Tl,0.0
mp-21259,Na2FeCu(CN)6,0.3204464288671849
mp-17650,KGaS2,0.0
mp-27145,Ca5Bi3,0.0
mvc-859,MgNi3(P2O7)2,0.04473147375002462
mp-1098603,HfMg30CO32,0.17430376539062564
mp-21172,PuPb3,0.5106322950000006
mp-4771,TiAlCu2,0.0
mp-600026,SiO2,0.05150289000000008
mp-866936,CaSnS3,0.21332674574999988
mp-779884,Sr5W3O14,0.02001638833331932
mp-673071,Li2SnP2O7,0.036521691666660416
mp-20557,YSiNi,0.0
mp-1030244,Te2MoW3(SeS2)2,0.07613926000000149
mp-780581,Fe4O3F5,0.09206996874999174
mp-1039728,NaHfMg30O31,0.06806197632936684
mp-775941,Cr2Ni3Sb(PO4)6,0.09204417194443693
mp-9895,Tc2P3,0.0
mp-743656,Na2MgB12(H4O7)4,0.6562915231144101
mp-756526,Bi2B2O7,0.07985493632574414
mp-686280,Nd4AlSi5(NO)7,0.6238587863195066
mp-640556,SiO2,0.003296999166666481
mp-704198,LiMo2P3O13,0.04443652342102311
mp-1087477,La2TcNiO6,0.14765973999999993
mp-1078527,ThAlPd,0.0
mvc-8141,CaSn(GeO3)2,0.0625041891000011
mp-866172,HoMg3,0.0
mp-1028293,Mg14NbV,0.16420334687499993
mp-13495,ZrPd,0.0
mp-715467,WO2,0.2640781575000091
mp-1079052,Er2CdGe2,0.0
mp-18337,Be3N2,0.0
mp-1097501,NaCd2Ag,0.7440089006448413
mp-778109,Li6Nb3P8O29,0.07542746569358272
mp-15964,Hf3Sb,0.0
mp-1037184,BaYMg30O32,0.12068490490234395
mp-735790,Li14Mn22Cr3Cu3O56,0.01909939997620036
mp-676500,Cr9In7S24,0.014430922265624703
mp-675327,Ag9(PbO3)4,0.004590791333333399
mp-780113,LiMnP2HO7,0.06775766666665461
mp-630799,K3EuV2O8,0.0
mp-764299,Li2VFe(P2O7)2,0.0004381198484626481
mp-1096163,MgZrHg2,1.79066275875
mp-740930,LaP3(HO)6,0.1527371852543462
mp-1077599,ScAlGe,0.0
mp-7,S,0.06543043260416592
mp-20040,EuBPd3,0.03569017035714328
mp-684006,Ag3TeIO4,0.005651323796295849
mp-554160,K2CuP2O7,0.00017882375001132544
mp-980004,SmGa2Co,0.0
mp-22416,SmTiO3,0.04893588574999797
mp-707319,BiH3Ru3(CO)9,0.2217496966999999
mp-1074780,Mg2Si,0.2045931445000022
mp-18722,Cs2LiMnO4,0.0
mvc-4409,Ca3Co2(GeO4)3,0.0
mp-640880,Nd2(Al3Co)3,0.00987625464285635
mp-850972,Li4Mn5Cr2O12,0.052162060434780784
mp-1079298,NaTl,0.08321083875000013
mp-675896,Ca2NdF7,0.13437609433333364
mp-861902,EuTl2Cd,0.024341304166667577
mp-685813,Ti(PCl6)4,0.005349688857757773
mp-763599,LiFe2(CO3)4,0.07552215799342665
mp-1098692,RbMg30MnO32,0.0823138664322931
mp-1093653,HfTiRh2,3.3278594575000007
mp-555639,Sm3OsO7,0.0
mp-13975,Er2SeO2,0.0
mp-505522,Fe(NiS2)2,0.06181947273809385
mp-17252,BaCu2GeSe4,0.0
mp-1030636,Mg3TiO4,0.2010614587500008
mp-541174,K3Cr(HO)6,0.006183793437497087
mp-1027162,CeMg14B,0.20247481550781327
mp-645405,Rb6LiPr11Se12(Cl4O9)4,0.0
mp-1100561,Li9Mn2Co5O16,0.1337567234374637
mp-759871,LiBi(PO3)4,0.07110846055556941
mp-632282,NaHF2,0.28681528999999983
mp-765382,Li15Mn8P8(O4F)8,0.032292735334508826
mp-1018705,GdCuPb,0.0
mp-1099280,SrMg6Fe,0.2988395151339285
mp-972072,YbYPd2,0.002715772500000213
mp-1094685,Mg16Al13,0.021739825172413685
mp-20355,Ce2CoSi3,0.0
mp-19343,Co4B6O13,0.0
mp-767747,LiVSiO4,0.07452069419642626
mvc-15767,YSnO3,0.2004911764999946
mp-20973,Ce2S3,0.0
mp-1037624,RbYMg30O32,0.09591480828125044
mp-1078391,CaZn(CO3)2,0.0013268099999983465
mp-673643,Ce17O32,0.0
mp-32590,U4N7,0.0
mvc-10613,BaZnCrF7,0.004520821250004303
mp-761626,Li4Co5SbO12,0.07877236011362765
mp-1008762,TaN2,0.4467077786244449
mp-542403,HoCoSn2,0.20094991035156706
mp-1023293,CaMg6Fe,0.2317045956250001
mp-767168,Li3TiV3O8,0.06959868074999331
mp-1487,AlNi,0.0
mp-667345,NbTl2PO6,0.0
mvc-2939,Ba2Ti3Tl2O10,0.16548897183824884
mp-758337,Ca2P6O17,0.0
mp-1079845,MnNiAs,0.0
mp-1094933,Ce2Mg,0.1247289955555555
mp-774802,NbCu(PO4)2,0.06902236739576839
mp-706611,LiBeH4NF4,0.0246253992992429
mp-780741,Li4FeSb(TeO6)2,0.036294697250000674
mp-556111,YSeF,0.08674123791666677
mp-18506,SmZrF7,0.0
mp-754628,WN2,0.057719437499999415
mp-766646,LiNiPO4,0.0706718838095286
mp-763673,Fe2C2O7,0.07456784681819427
mp-765183,FeOF,0.05037070333333117
mp-12005,Tm2Al3Si2,0.0
mp-14038,Rb2NaRhF6,0.0
mp-765142,LiCoSiO4,0.1038003713571296
mp-862906,PmGaCu2,0.0
mp-622110,Ba2ErCu3O7,0.02832760908653853
mp-5336,Sn(Mo3S4)2,0.05357795100000029
mp-736386,VH24C4N4Cl7,0.06465118762500044
mp-1073371,MgSi2,0.2107276192592611
mp-6495,BaEr2ZnO5,0.021927471712961832
mp-684829,Co27Se32,0.059961985254235024
mp-20954,DyTiSi,0.0
mp-772417,Li4V3Fe5O16,0.06464662132439969
mp-976587,KP2AuS7,0.006285248636362262
mp-23133,Sr2Cu3(BrO2)2,0.011904160909084638
mp-1097604,ZrGeRh2,2.7468793264062503
mp-31208,LiIn2Ir,0.0
mp-559957,SrTiGeO5,0.0
mp-777914,FeOF,0.1702584944444432
mp-1028542,TeW2SeS2,0.06251823729166794
mp-705548,Fe7O8,0.07703015633333443
mp-1800,Nd2C3,0.0
mp-1017511,Cr3Fe,0.25897152500000153
mp-505700,KInSe2,0.0
mp-706524,Sr3La4O9,0.2332241937500008
mp-1670,MnPt,0.0
mp-862843,PaZnRu2,0.0
mp-771580,Li4Fe3TeO8,0.12481824667968855
mp-541147,Cu4Se3O10,0.0018619954411800421
mp-684052,LiSn6P7O24,0.05950361015350492
mp-2070,CoS2,0.0
mp-1095824,Hf2MnNi,3.6193165965624994
mp-775289,Mn3CrCu2(PO4)6,0.050009209999999804
mp-1006132,Hf3Pb,0.0
mp-753009,Li2AgF3,0.0866222100000007
mp-540439,Mn(PO3)3,0.05764556153844945
mp-12603,ScSnPt,0.5840266511111114
mp-16506,Li3Al2,0.0
mp-31207,Zr5GaSn3,0.0
mp-999295,PrN,0.2713795025000003
mp-864957,MnSbRu2,0.0
mp-1080806,TmSnPt,0.0
mp-643412,MnH2SeO5,0.0
mp-773688,Na3Li3Mn2P2(CO7)2,0.03662800499999985
mp-863382,Li4Nb(P2O7)2,0.08438601381987533
mp-675493,Sb8Cl27F13,0.11542497932291652
mp-579561,Mn5Pb(SO4)6,0.0
mp-504825,SeCl,0.02282487896484397
mp-761308,Li2MnNb3O8,0.11168100455357256
mp-861646,ThCdRh2,0.0
mvc-446,CaCuO2,0.13380912187500016
mp-569411,La3ScBi5,0.0
mp-971750,Tl3Ir,0.5430619487499997
mp-2059,NbAs,0.0
mp-996945,Cs2TlInH6,0.012216070542444337
mvc-15828,ZnBiF5,0.08122483750000065
mp-10308,Ho2Ge2Rh,0.0
mp-602268,Zr2In5Ni,0.0
mp-22029,MnNi2Ge,0.01877735843750017
mp-1078944,PbS,0.1697377874999999
mp-734045,Cu2H2Se2O7,0.015209071538461847
mp-761128,BaNb5O8,0.0
mp-556275,Rb2Al2Sb2O7,0.0
mp-765043,Li4V3P8O29,0.05059674280303561
mp-2914,LaSi3Ir,0.0
mp-24413,Na2LiAlH6,0.0
mp-1033200,Mg6BiBO8,0.6634304263802084
mp-30865,TmRh2,0.0
mp-1028406,BaMg14Co,0.20548735398437512
mp-7937,NaNbS2,0.0
mp-12364,BaCu2SnSe4,0.0
mp-1068243,Lu2InNi2,0.0
mp-11673,Sc2(SeO4)3,0.0
mp-630866,Fe3Pb4ClO8,0.04823113854166562
mp-20674,Ba2YCu3O7,0.022844237788467225
mp-1038613,BaMg30BiO32,0.17285178921875044
mp-776418,CaGd2O4,0.0877493378571419
mp-624000,Re(Te4Cl3)2,0.05851322353472144
mp-505467,YSiPd,0.0
mp-25664,Fe(PO3)3,0.01521293987176886
mp-561851,CsNO3,0.0
mp-27752,Na6Ge2S7,0.0
mp-850952,Li2Mn3(BO3)3,0.054155214656843136
mp-950,NaZn13,0.0
mp-977463,MgMnRh2,0.000494292499999105
mp-1034602,NaMg14CrO16,0.03380246437500034
mp-13334,ZnSnO3,0.04116777299999973
mp-8263,KNa2BO3,0.0
mp-709019,Ca2CuH6(CO2)6,0.16037030620370096
mp-1094229,MgSn5,0.046777603472222484
mp-973970,Li(Mg4Al3)4,0.027806878726787776
mp-759408,AgH8C4N8F,0.02045750347787756
mvc-7342,Si2NiO6,0.265206304490742
mp-773831,Sn2N2O,0.0589959447979993
mp-616640,Sr2Fe2O5,0.00016082444444620592
mp-27670,Rb4In2S5,0.0035959934090907812
mp-555159,Pr2O3,0.026370708999998268
mvc-6881,MnZn(SiO3)2,0.03979551354166677
mp-763174,Li2VO2F,0.09557719041666424
mp-3954,PrPS4,0.0
mp-1034061,Mg14TiBiO16,0.28891456695312634
mp-767855,LiMn2(PO4)2,0.05852551461538536
mp-867239,Ce2AgPb,0.0423883079999996
mp-762790,Li3V4P2O8F9,0.09015293307694794
mp-722329,H12C4IN,0.10671460499999874
mp-29940,SbClF10,0.0
mp-672214,BePbF4,0.044126323472222666
mp-765431,LiVOF2,0.09312853180555256
mp-753650,BaLaCl5,0.08058707000000265
mp-775127,Li4Fe3O8,0.13931384525000198
mp-637575,AlCr3B4,0.0
mp-770267,Li24Mn5Cr7O36,0.01440727333333669
mp-559010,Sb2OsC4(OF3)4,0.057274579293478574
mp-1167,CF4,0.0
mp-1074062,Mg9Si5,0.19703700035714267
mp-2750,Cr2Te3,0.0
mp-685097,HfO2,0.02853966249999652
mp-1098815,BaMg30FeO32,0.07913008199032667
mp-1056059,O2,1.56497783875
mp-22889,ZnCl2,0.0008014533333335905
mp-30070,U3Cu2Sb3,0.05976598031249925
mp-778735,Mn6OF11,0.030595551736110064
mvc-4317,Ca3Si4(SbO7)2,0.13206430597825936
mp-11291,CeCd,0.07437666500000084
mp-1031703,Mg6NiBiO8,0.2659914933593752
mp-1099948,K4Na4NbW7O20,0.2738685294444449
mvc-10428,BaSbF7,0.017040752499998042
mvc-2345,Ta2TiZn2O8,0.14377306993589478
mp-765525,Li2VOF5,0.02691548851853831
mp-768942,Ho2(SeO3)3,0.07777026446428259
mp-1032152,BaMg6FeO8,0.3535763054613108
mp-11311,TmCd2,0.0
mp-29387,K5SnBi3,0.0014432411458331627
mp-1096593,LaYHg2,2.2602387999999998
mp-765567,Li4P5HO15,0.00181499030000154
mvc-6691,Zn3Fe3(AsO4)4,0.04130133647691546
mp-740696,TeH18(Br3O4)2,0.0
mp-569860,Nd(NiSn)2,0.051187238999999884
mp-757173,Sb5O7F,0.07957586985576981
mp-1077109,SmSiPt,0.0
mp-30342,HoInAg2,0.0
mp-556890,BaNaCr2F9,0.0
mp-4131,Sc(CoSi)2,0.0
mp-25750,Ca2Fe2O5,0.010323453055566922
mp-850939,Li2MnV(P2O7)2,0.0028920237311087504
mp-865640,TiGeRu2,0.0
mp-27718,CsHgBr3,0.03824134683333202
mp-779856,Li3MnFe2(BO3)3,0.004586214537036781
mvc-8765,V(Si2O5)2,0.15741984566667178
mp-14785,Ba(Cu2P)4,0.0
mp-28117,VCl3,0.0
mp-707735,MgH12(I4O3)2,0.0
mp-768194,Li3SbS3,0.06263881071428568
mp-680500,PtXeF11,0.02701984502403887
mp-773436,NaLi5Fe2P2(CO7)2,0.032123927499999816
mp-556583,CsSb2F7,0.0
mp-980944,Yb3Y,0.1106996156250002
mp-1025387,TbO3,0.43590232093750014
mp-1038818,MgAl,0.9248897109210524
mp-680410,K3Nb2S11,0.0
mp-672394,YbIn4Ni,0.0
mp-17265,Sr2CuGe2O7,0.05501011763890329
mp-559627,LiP3PbO9,0.006835915327379816
mp-1056985,TiPd,0.011373929999999527
mp-20746,YbIn2Au,0.0
mp-697666,H6S(NO2)2,0.11292539770709008
mp-756708,CaPrO3,0.17379179137500067
mp-767172,Mn2OF3,0.04598947604167058
mp-1032862,Mg6MnFeO8,0.08559813843750064
mp-29500,Ge7F16,0.0026524228260873532
mp-1096649,TaVRu2,3.9634023175
mp-510125,Ce(Ni2Sn)2,0.009344724126985504
mp-12781,ScAl2Ni,0.0
mp-540739,Ba3YIr2O9,0.06565907585416042
mp-29111,Al2Fe3Si4,0.009519179067458694
mp-777167,LiTiO2,0.06250767281250003
mp-853270,Li5Mn6(BO3)6,0.0320236444047417
mp-765118,LiVCrP2(O4F)2,0.007163110750010305