mpid,formula,e_hull
mp-21459,InAgS2,0.001982080624999938
mp-1080800,Th(CoAs)2,0.0
mp-14069,CsAlO2,0.0
mp-771061,MnFeBO4,0.0867283700357131
mp-2054,TbHg,0.0
mp-1025425,Co3H,0.0
mp-29751,CsMgI3,0.0
mp-1078760,DySnPt,0.0
mp-762036,Li(CoO2)2,0.03282828428571527
mp-20525,CuSO4,0.0
mp-977583,LiNpIr2,0.06684784390624897
mp-505200,CoCuP2O7,0.015184931818182257
mp-707515,Mg16Si8HO32,0.11629721528736693
mp-779914,Fe3OF5,0.07639630222222671
mp-771987,Li3MnV4O12,0.0727950154999899
mvc-12271,Ca2Fe2(SiO4)3,0.10254880063596516
mp-696946,BaSn2(HO2)2,0.0
mp-758223,Bi11PO20,0.08522608963541778
mp-1097003,FeO2,0.2482905639583395
mp-759636,Nb5O12F,0.04467445722221797
mp-780875,Mn8O13F3,0.06727463984375426
mp-867833,LaMgHg2,0.0
mp-27994,HgBrO3,0.0
mp-1095377,ErSnPd,0.034116769722222884
mp-763501,Li3V2(O2F)2,0.09363099867426428
mp-685300,Ti4P8S29,0.0
mp-1097684,MnV2Mo,3.7881513375
mp-767237,LiFe2(PO4)2,0.04432066971151283
mp-973544,Lu2BeOs,0.013146599711538087
mp-18458,Sr5(SnP3)2,0.004090600384619947
mp-706252,LiFe5O8,0.17485962071428407
mp-1097622,Ti2NbAl,3.5726034071666666
mp-675946,Li2MgBr4,0.5799690742857151
mp-1009894,ZrC,0.6135818300000011
mvc-902,CaV4O6,0.07500432969696824
mp-14127,La2Fe14C,0.02309675245098041
mp-705497,Ga2P2H9NO11,0.07342543218571418
mvc-5220,BiO2,0.17448399722221894
mp-764831,Li3Ni(OF)2,0.08108221406250228
mp-557763,Nd3NbO7,0.0
mp-16165,Ho3Si3O10F,0.0
mp-863735,ErRh2Pb,0.0
mp-24181,CsGaP3HO10,0.0
mvc-14155,ZnFeO3,0.15658128387499914
mp-622570,Ti2Cu3,0.003113040199999695
mp-850451,Mn6O7F5,0.07493663687501684
mp-1094801,MgSn,0.021388283750000348
mp-1018176,GdFeC2,0.0
mp-21883,VGaFe2,0.0
mp-24333,UH12(ClO2)3,0.029048374399359037
mp-777507,MnOF,0.06632252791667081
mp-532575,Na13Ca7S12(O16F)3,0.0023164949698797344
mp-756,TbAl2,0.0
mp-1096760,TiAlIr2,3.185797240000001
mp-975043,Rb3Ca,0.1830544500000002
mp-569103,Mg3Hg,0.038109696041666696
mp-763076,FeOF,0.06294028444444244
mp-557888,K5U2O4F9,0.0
mp-772480,Na3MnSiCO7,0.0
mp-1035173,KMg14CoO16,0.13100699500001145
mp-977013,H6PbCI3N,0.04346674843750087
mp-764510,FeOF,0.06257410962962863
mp-776757,Li4Co2Ni3Sn(PO4)6,0.09096513034375596
mp-1016650,BaMg6Nb,0.2702065098660711
mp-1040333,Mg30TiCO32,0.15085068906250054
mp-1028487,W2SeS3,0.011242862500001394
mp-23101,Nb2Bi2PbO9,0.04125148178571792
mp-1096126,AlTc2Ge,3.148707636250001
mp-1040007,LiMg30CO32,0.14166471776367207
mp-1032580,Mg6FeCoO8,0.10067709703124984
mp-705002,Li3V4P9O32,0.03097171998261405
mp-637226,Fe4P2O9,0.011237727333330838
mp-3759,MgGeO3,0.01976218650000039
mp-706279,Li2ZrFe(PO4)3,0.19179840631578848
mp-1017400,NaMg6Nb,0.18180009437500025
mp-1022263,Mg6FeSi,0.3158913284375
mp-696795,Cu2H3NO6,0.20349815499999835
mp-27924,TbBr,0.011865829722223609
mp-29166,Li3Ag2Ge3,0.04803728843749999
mp-8412,LiCeO2,0.042510452187491055
mp-773293,Li2MnCrO4,0.00794884750002023
mp-1069461,HoSi3Ir,0.0
mp-574507,Eu(Cu2Sn)2,1.560067662857143
mp-2392,Th2Se5,0.0
mp-1091384,NbTl3S4,0.0
mp-769729,Li5Fe2Co3O10,0.0848137960000015
mp-25734,Rb2CoH12(SO7)2,0.0
mp-976287,Li3Pb,0.0
mp-774306,LiCrPO5,0.059383805093736086
mp-565509,KMo2Cl7O2,0.0
mp-770016,LiVBO4,0.09528161999999174
mp-556406,AsS2NF10,0.001031706050238057
mp-1098506,RbMg30BO31,0.1895030257070696
mp-764844,Li7V4O11F,0.07375823766307388
mp-761487,Li3Cr(PO4)2,0.06925356077366196
mp-865080,NaCeAu2,0.015071208125000181
mvc-6158,Ca3Mn3(AsO4)4,0.0
mp-1023001,YMg6Ti,0.159807670416666
mp-1032435,SrMg6FeO8,0.18213141020833126
mp-570231,CsCdBr3,0.032818174999999165
mp-505229,Al3FeSi2,0.0
mp-559766,Cs3LiF4,0.013073766249999784
mvc-7416,MgTaBiO5,0.0665130568750012
mp-756470,K2DyPCO7,0.02011674041667444
mp-1038750,CsMg30SbO32,0.16589125632812518
mp-33320,CaUS2,0.5961996599999999
mp-906175,CeSe,0.0
mvc-15993,Ca2Ni3O8,0.0013203223557685106
mp-770741,Mg3(AsO4)2,0.027357939230769013
mp-776777,Li4CrCo2Ni3(PO4)6,0.0935805278999844
mp-1098606,HfMg30BO31,0.1955087604960335
mp-640113,KVF4,0.0
mp-973968,KNaO3,0.587716098333336
mp-556934,KNaSiF6,0.004684443240742908
mp-1027053,Te4Mo3W(SeS)2,0.0955776350000006
mvc-16068,CaNiN,0.0
mp-1022960,Mg6MnW,0.30948302250000026
mp-16771,MgSe2O5,0.0
mp-770574,La2MgI8,0.06724558727272667
mp-570602,B,0.22339383733333307
mp-227,SmCu5,0.0
mp-9499,Sm2C(NO)2,0.0
mp-721875,CaB2(HO)8,0.03758570118421378
mp-1079881,CeSb2Pd,0.0
mvc-883,Sr2AlCrCu2O7,0.17054582743589908
mp-22924,NaBi,0.0
mvc-8943,ZnBi3O7,0.15349370636363524
mp-549970,Ba2ZnReO6,0.017127627250000714
mp-23947,Cs3MgH5,0.00026284222222194836
mp-780748,LiVCoO4,0.025033206547610654
mp-600085,SiO2,0.01718096848958339
mvc-7434,CaTiBiO5,0.09671688640624863
mp-999395,Nb3Fe,0.08581823374999864
mp-531484,Y5U2O12,0.00030005942982391787
mp-680580,Zn3As2,0.0
mp-1028918,CeMg14V,0.14502200562499956
mp-1095278,BaTbAgTe3,0.0
mp-22902,LiBi,0.0
mp-699477,NaH6RuN(ClO)4,0.7655354928851938
mp-505322,CsTa(CuTe2)2,0.0
mvc-3019,SrMgFe(PO4)2,0.011925308750002195
mp-5306,Nb4CrS8,0.0
mp-767215,LiMn(PO4)2,0.08921204281250272
mp-1907,TiTe2,0.0
mp-764377,Na7Ni17O24,0.01921686833333513
mp-1026557,BaMg14W,0.27771225874999983
mp-567824,K2NaCo(CN)6,0.08400754699218815
mp-557080,SiH17S3N5,0.0
mp-762803,MnV4O12,0.06929716544117602
mp-570799,EuI2,0.004556507916662511
mp-990967,CsEuF3,0.0012513739999988616
mp-618991,Cu2S,0.045480517083333886
mp-694899,Ba8(CoO3)7,0.02031487347222516
mp-13095,YAlNi,0.0
mp-641911,Ce(In2Pd)2,0.0
mp-765117,LiVCr(P2O7)2,0.008934962539657755
mvc-15116,Y4(Cu2O5)3,0.06706933315000008
mp-850251,Na2Ti9O19,0.08192607458333434
mp-554206,Cs2Al2As2O7,0.0
mp-973203,Sb3Mo,0.613136007083332
mp-1079378,Au(OF3)2,0.012769726666667314
mp-1080799,CuNF3,0.7564400452860025
mp-764829,Fe4O3F5,0.030185970833325193
mvc-5989,Sb3(AsO4)4,0.253491472028994
mp-31909,Ta2Mn3O8,0.02247784615384596
mp-773548,Li4Mn3Fe(BO3)4,0.005415985208333751
mp-780370,Sm3Al5O12,0.0
mp-850144,LiMn(PO3)4,0.06444879833333418
mp-21757,Eu3Al5O12,0.002103534000001517
mp-767326,Li3NiPCO7,0.07476371884615672
mp-859877,LaMgI5,0.07499003642857273
mp-1079988,La2Al2Ge,0.0004324649999984942
mp-32069,UMo5O16,0.03124778256493776
mp-24239,K(BH)6,0.0
mp-760372,Na5Ti12O24,0.05740337107722838
mp-773300,Mn5FeO12,0.05744237163194476
mp-675740,Ca(CeTe2)2,0.02116870410712845
mvc-6676,Mn3(AsO4)4,0.17522285847826158
mp-669431,EuBi2BrO4,0.0
mp-762417,Li5Mn5O12,0.08285154192371191
mp-917381,CuGeO3,0.042787774000025536
mp-1097190,HfTiAu2,2.785522889583335
mp-556256,Li3Fe2(AsO4)3,0.0
mp-1458,Nb3Ir,0.0
mvc-2085,V2ZnO6,0.11063108805555544
mp-1072202,TaS2,0.0021504666666665173
mp-21436,GdCuSn,0.0
mp-764230,Li2MnO2F,0.04258789708332955
mvc-10023,Ho(BiO3)2,0.07619027840277681
mp-978785,Si4MoPt3,0.0
mp-774384,Fe10O11F9,0.08390632822916189
mp-30355,SrAg,0.0
mp-686689,Y2BeAlBO7,0.3138564049027739
mp-851283,LiFeSiO4,0.05766999749999345
mp-1025218,SiPt5Pb,0.0
mp-568289,CdI2,0.00183565244444428
mp-1098985,Mg14AlNiO16,0.10042913468749948
mp-1096918,CrN2,0.3368837000399978
mp-849341,LiMn2(BO3)2,0.06517547931817624
mp-1028129,YMg14Mn,0.08382942062500033
mp-780137,Li3Mn4(BO3)4,0.03552646068838605
mp-781284,MnFe3Ni2(PO4)6,0.02370080114583395
mp-689938,LiMn2(PO3)5,0.038051090000001515
mp-31100,CeIr3,0.0
mp-37950,Na3(W2O3)2,0.9572304826923146
mp-696656,BH4O2F3,0.0
mp-1037710,KYMg30O32,0.0684121271875
mp-571370,Fe2NiP,0.0013592254166665536
mp-772668,Li3MnSiCO7,0.04872772942701165
mp-3211,Nd2SO2,0.0
mp-15355,U(BRu)4,0.0
mp-553875,Zr2SN2,0.012767755000002271
mp-558203,SiO2,0.08343459927083252
mp-569484,Cs3Ti2Cl9,0.0
mp-628766,Co2Si,0.0004984516666661777
mp-1080147,Ni3Sn,0.008040623750000364
mp-557877,C2SeS2O7F6,0.2319777169444421
mp-558778,Nb3CoS6,0.0
mp-1034098,KRbMg14O15,0.2677621398790331
mp-866375,TiFe2Ge,0.0
mp-15318,Rb2NaHoF6,0.0
mp-1026818,SrLiMg14,0.0757648409374998
mp-705268,Li3V3(PO4)4,0.011377995769235484
mp-1023498,KMg15,0.10182611937500008
mp-1028187,CaMg14Cu,0.07108419312499993
mp-752501,LiSiBiO4,0.0415220062500028
mp-19566,Na3Sc2V3O12,0.0
mp-1190,ZnSe,0.0
mp-1028669,TeW2SeS2,0.06305400645833359
mp-571166,CaBr2,0.000490259999996745
mp-745173,Na3Cd4P6H10(ClO8)3,0.4669154558805513
mp-1095513,SrCdAu,0.0
mp-768149,DyInO3,0.004685343666666952
mp-1076058,Sr4Ca4Mn5(FeO8)3,0.06687673416669426
mp-1094686,CeMg2,0.13383496611111134
mp-775079,Li2Cr3FeO8,0.057036958396827764
mvc-8977,CaLaFeAgO6,0.05599694096874952
mp-775526,NaMnPCO7,0.0069906193181834535
mp-757917,Be(GaO2)2,0.0
mp-769461,Na5Mn2P2(CO7)2,0.009989112999999605
mp-770815,Cs3YO3,0.0
mp-773541,Fe10O11F9,0.07278815189582842
mp-780107,Li7Cr3Fe(PO4)6,0.05944080981704225
mp-979952,Yb3Ti,0.3833421358333333
mp-1026540,Mg14GaC,0.17509735171874974
mp-1032629,CsYMg6O8,0.5755158303125194
mvc-3488,TaF5,0.07438213000000092
mp-974690,Rb2CuCl4,0.021235791071429144
mp-1078863,Gd3(CoGe2)2,0.010503093333335656
mp-1026886,LaMg14Co,0.10782878945312467
mp-690094,Mg3V2O6,0.11963349454545025
mp-767002,Ti5PO11,0.0865787029054399
mp-571248,Cs2NaAu3(CN)6,0.08512650383101761
mp-821,NbO2,0.004939896041685543
mp-1080835,V2GaC,0.0
mvc-612,YTa(WO4)2,0.2814365758333324
mvc-10459,ZnCo2(CuO4)2,0.13252667745951552
mp-27362,Nb(SCl)2,0.0
mp-556086,Na5FeS4,0.0019011395000010367
mp-864932,Mg2AgPt,0.0
mp-706661,UTi22Fe18PbO76,0.11177430042373082
mp-1029574,Na5OsN4,0.014050380999999671
mp-752432,Gd3NbO7,0.00536273545455046
mp-1028764,WSeS,0.014605408333334681
mvc-9140,PWO5,0.07304783964287154
mp-1071948,TmS2,0.0
mp-1033562,NaHfMg6O7,0.24902216391666696
mp-868574,LiVCrP2(O4F)2,0.005928705583342797
mp-677039,Li5TiAs3,0.005713003981482778
mp-864650,Ta2OsW,0.0
mp-864883,MgSnPd2,0.0
mp-540728,K2Zn6O7,0.012473235333332331
mp-12750,SmGe2,0.0790461733333343
mp-555276,Sm2US5,0.0
mp-766652,Li5V(CO3)4,0.052155758977308515
mp-766719,CoNi(PO4)2,0.07517649421876715
mp-27688,K2TeI6,0.0
mp-1025180,Mn(CrSe2)2,0.0
mp-643264,BaMg2FeH8,0.0
mp-1093786,V2FeRe,4.097116818888889
mp-1029921,Ca3Al3N5,0.0
mp-705343,Mo4P9O32,0.0469347062777814
mp-566861,Na2TiFe5(Si3O10)2,0.0
mp-865505,Lu2InAg,0.0
mp-1016881,CdSnO3,0.3462366490000006
mp-504457,BaTi6O13,0.010627040406232524
mp-30096,Be2Te7Cl6,0.0
mvc-6906,CaCr(SiO3)2,0.05624974395833071
mp-20654,Gd2InPd2,0.0
mp-559319,Zn2P2O7,0.0
mp-853200,Li2Mn3(BO3)3,0.05442247877449091
mp-760678,Sb2H4AuF16,0.0
mp-861555,Na3(CoO2)5,0.0229099490000122
mp-761977,LiNiPO4,0.08901831214286116
mp-699738,Li2Co3(SeO3)4,0.0
mp-1097663,MgCo2Sn,2.332484222916667
mp-20226,UGeIr,0.0
mp-765399,Li2VCoO5,0.08855946394445091
mp-1020180,Na2SrMg(PO4)2,0.0
mp-27898,Zr3AlN,0.0
mp-30059,Tl2(SbO3)3,0.04514966799108233
mp-1013588,Sr3SbP,0.09556670883333628
mp-694989,SrNd5Fe6(AsO)6,0.17224875604166456
mp-771213,Li4TiCrO6,0.013427492499999085
mp-763360,Li2Co2(SiO3)3,0.09370978328124746
mp-560740,La2SnS3O2,0.0
mp-29460,Tl3PdCl5,0.014934117500001953
mp-1094626,Mg5Ga,0.030777097500000124
mp-1028347,Mg14CrNi,0.12146692250000025
mp-1775,SnAu,0.0
mp-777297,K5H(CN2)2,0.0
mp-974940,Rb3Mg,0.17775026000000016
mp-850776,Fe5O7F3,0.0975794875833378
mp-1095956,YAgAu2,1.835619755
mp-9855,KHfCuS3,0.0
mp-1100433,CaZnSi,0.2351964866666667
mp-1021289,CsLiMg6,0.2870903599999999
mp-13614,Rb2Be3Cd2F12,0.0
mp-569547,Sr6FeC2N7,0.03731677052082994
mp-773717,Na3Li3Fe2P2(CO7)2,0.024873575769229102
mp-1065405,CsAuC2,0.33076044625000023
mp-6726,CsLiSO4,0.0
mp-1080791,UCuBi2,0.14135481125000027
mp-706525,NaAl3P2(HO3)4,0.00579564374999908
mp-744988,KAl2NiP3(H2O7)2,0.0
mp-780835,Li5FeO3F2,0.08820196568181604
mp-765540,Li2VF5,0.07189188395832248
mp-684489,LiBiP2O7,0.033818768939396726
mp-1025637,Te2W3(SeS)2,0.06648025138889048
mp-756746,Rb4PbO4,0.0
mp-755840,Nb2SbO6,0.06513815351850916
mp-23390,RbCdCl3,0.0
mp-11713,SiC,0.002613724833333109
mp-767988,LiV(CO3)2,0.06855462366667897
mp-1097512,LiZnCd2,0.906888688333333
mp-759915,Li2BiP3O10,0.07026185604166724
mp-680248,Os5(CO)16,0.2209834717567567
mp-865203,YCuPbS3,0.0
mp-4841,LaCuS2,0.0
mp-27683,LiSnS2,0.0803410056249998
mp-570604,TaN,0.24387973083333314
mp-866060,CaPrAg2,0.0
mp-19469,Na5Tb(MoO4)4,0.0
mp-686909,DyMoO4F,0.0
mp-755594,ZnReO4,0.147739773333333
mp-28012,ReNF6,0.2279087453275048
mp-643069,Li2HIO,0.0
mp-510709,SrAsH3O5,0.01092584829998966
mvc-11134,MgTi2O5,0.14232700562500256
mp-4002,Li2ZrF6,0.0
mp-1075018,Mg3Si4,0.2345071876190472
mp-770868,VWO4,0.03752105791666338
mp-1038678,SrMg30BiO32,0.11964377647135473
mp-1005850,Yb3U,0.6525309150000003
mp-1098582,Mg30CrBO32,0.1151333335546898
mp-762991,FeOF,0.06249211370370222
mvc-5897,Zn(CuO2)2,0.0
mp-753726,TbCeO4,0.07333142166666562
mp-626689,Fe(HO)2,0.012569152000000194
mp-766055,Li7TiFe3(PO4)6,0.11635364524392422
mp-555791,SiO2,0.03967826875000036
mp-1078468,MgSi(HO2)2,0.15914172942708493
mp-1020181,Na2ZnB6O11,0.0020324472499986253
mp-975421,RbAgO3,0.3480936857499985
mp-776792,NaV3P2O13,0.0
mp-1039698,NaMg30BiO32,0.04914367703125322
mp-566661,CrHg3(PbO4)2,0.0
mp-1038353,Mg30AlZnO32,0.048330767500000434
mp-31523,K2Co2(SO4)3,0.0
mp-626735,BaH4O3,0.007853024375095606
mp-22052,Zn(InS2)2,0.011215658392857542
mp-1096110,Ba2ZnPd,1.3447355925000004
mp-1073199,Mg2Si3,0.2364744226111104
mp-22008,EuIn4Pd,0.0
mp-762648,LiFeSiO4,0.07755022357142137
mp-773501,Li3MnV2O6,0.048767395625010763
mp-1093828,Hf2VIr,3.9801409520833335
mp-1093705,K2HgSe,0.7574761349999999
mp-550172,SnO2,0.0022980783333332857
mp-23453,Hg6Sb5Br7,0.0
mp-1111,Mn5Si3,0.04507893749999958
mp-974108,NiPbO3,0.4450370710000051
mp-23454,CsAgBr2,0.012423951875000228
mp-782685,Li3Fe3(OF)4,0.08252461329365524
mp-761576,Li2MnV2(PO4)3,0.05990171719738504
mp-1026608,RbMg14Bi,0.17778015145833326
mp-570803,Ba2Ge(TeSe)2,0.0
mp-974417,Re3Sb,0.6373852499999995
mp-1018106,YbBiPt,0.0
mp-1097598,ZnGaCu2,1.3154680586875005
mp-1039565,CeMg5,0.06485045833333336
mp-1035470,RbLiMg14O15,0.2006503386693544
mp-627355,CeGePt,0.0
mvc-10214,TaCuO4,0.21759049625000948
mp-776611,Li4Mn2NbNi3(PO4)6,0.10570437148436973
mvc-9352,PrZn(SbO3)2,0.2225999585000027
mp-864824,LiTbAu2,0.0023098825000014145
mp-1097709,CsPb2Cl5,0.05147327812500002
mp-764898,V3O5F,0.04017374444443789
mp-753741,Li3CuS2,0.06268861093749932
mp-505629,Cr3SiNi2,0.22146509638888826
mp-5457,Pr3Co11B4,0.014847235555556003
mp-31182,ErAl2Ni,0.0
mp-2917,Dy(CuSi)2,0.0
mp-559904,NaLi3SiO4,0.0
mp-770225,LiMnPCO7,0.027245934450761844
mp-560366,XeF6,0.0
mp-1022083,Mg6CuSb,0.1420931887500001
mp-35249,Sm2Hf2O7,0.0
mp-6910,BaPrO3,0.11375309374999976
mp-985697,Ba3Si6(NO6)2,0.0
mp-566645,MnH6SO6,0.03351578381673903
mp-1084757,LaNiSn2,0.0
mp-33018,Rb3Sb,0.03418702749999891
mp-19083,NaVO3,0.0
mp-1016214,Bi2H18C3(IN)9,0.0
mp-865829,Lu2CuIr,0.0
mp-998979,Ti3In,0.09686813250000093
mp-769765,Li2AlVO4,0.0881595953125025
mp-554012,SClO2F,0.0
mp-560890,Li3ScF6,0.006026926499994367
mp-773020,LuP5O14,0.012998751749999649
mp-1087554,CeSe2,0.5691611170833344
mp-1076172,La7SmMn4(FeO5)4,0.07374249685763877
mp-29380,K2Te2As,0.0
mp-1033203,HfMg6GaO8,0.4096118214062496
mp-1028185,RbCaMg14,0.1516302878125002
mvc-9203,CaMnBiO5,0.09308100398436724
mp-30159,AuBrF6,0.0
mp-14532,NaTa3O8,0.02235325041666236
mp-862869,Pa2S3,0.0
mp-685869,Zn(Bi19O30)2,0.038883299267673976
mp-1027952,YHfMg14,0.08514472281250017
mp-865096,NaHoTl2,0.0
mp-674804,Sm2PbSe4,0.045227388214285284
mp-640372,Dy5NiPb3,0.0
mp-1666,Th2S5,0.0
mp-772116,LaMgI5,0.07084645142857271
mp-15904,BaGd2ZnO5,0.015702936851850424
mp-542391,Tm(SiNi5)2,0.0
mp-569790,BaAg2GeSe4,0.0
mp-25703,Sr2MnGe2O7,0.0
mp-29141,Re3Ge7,0.0
mp-620652,NaSr2AlP3,0.0
mp-25180,Nd2WO6,0.0
mp-1035923,SrYMg14O16,0.1709935984765636
mp-778627,LiMnP2H5O9,0.0844308653472261
mvc-8585,MnZn(GeO3)2,0.014346366020832947
mp-1001836,MnGa,0.0
mvc-5485,CrO2,0.18594847333333486
mp-669333,Ba5Si8O21,0.003921839191177945
mp-696618,CaB2(H2O3)2,0.015181647115388053
mp-38322,Mg(IO3)2,0.0
mp-868418,Li2FeSi3O8,0.08217065839285542
mp-778916,Li8Mn7Fe(BO3)8,0.004482759826387017
mp-1094410,YMg2,0.12850895250000027
mp-764897,Li8NiO5F,0.047920211499999255
mp-13688,Ge2Mo,0.0
mp-767861,Li2Si2Ni2O7,0.0703759219230955
mp-2565,S2N,0.0
mvc-11542,MnO2,0.03595453916666713
mp-762820,LiV2(SiO4)2,0.07436234067307622
mp-561775,Ca3CoRhO6,0.017156814772730122
mp-1016352,SrMg6Bi,0.1835431045
mp-776190,MnV5O12,0.058070556666661936
mp-773191,Li6Cr3Sb3O16,0.07966189157736636
mp-25023,Mn2Si(P2O7)2,0.0
mp-565761,SrV4(Bi3O10)2,0.0
mp-4651,SrTiO3,0.0
mp-5394,LaSF,0.0
mp-707176,NaCa2Al2P2H5O11F4,0.0
mp-7291,CrP2,0.0
mvc-14980,CaMn2O5,0.3000859107812497
mp-1096568,LiCu2Au,1.6270719375000005
mp-32048,Li3Mo(PO4)2,0.02999781696428538
mvc-5557,MgCoAsO5,0.10824075916666498
mp-1096200,Ba2HgPd,1.310363015
mp-706241,Rb8W13O43,0.07760684046874644
mvc-16384,CaCu3(GeO3)4,0.0999739152500112
mp-557910,Cd2PO4F,0.0
mp-671510,Sc3Re2Si3,0.13451761078125202
mp-1029536,MgZrN2,0.0
mp-1681,La3Sn,0.0
mvc-9751,Mg(AgO2)2,0.1503426066071425
mp-763244,ZnFeH4O2F5,0.0
mp-707836,Na3H6Ir,0.0
mp-32616,Ga2S3,0.0015363510000003804
mp-558890,BaLi(B3O5)3,0.00017604153847550208
mp-25581,La2MoO6,0.059277114444441274
mp-561191,BaFeF5,0.0
mvc-2985,Ba2YTlFe2O7,0.14350398901100014
mp-1076737,Rb2Ta2O5,0.2469635309259264
mp-780176,Fe5O3F7,0.0670327223333409
mp-1034615,Mg14SiCO16,0.3289288596874984
mp-530262,Li15Cr2N9,0.0
mp-1098977,Mg14AlFeO16,0.08601299867187517
mp-13276,SrLiP,0.0
mp-3683,Ho3(CuGe)4,0.0
mp-774070,Li3Si2(NiO4)2,0.08292302841669752
mp-16932,Th2Co17,0.0
mp-867298,CeTlAg2,0.006012388333333174
mp-565580,Li2Mn2NiO6,0.07247920275978448
mp-1031550,Mg6SnCO8,0.604101477968749
mp-566658,LiV(GeO3)2,0.0
mp-17964,Na2Ge2Se5,0.0
mp-757791,SmY15O24,0.0007998364843739836
mp-20350,DyCoC,0.0
mp-9378,Na(SnAs)2,0.0
mp-1956,TmGa2,0.0
mp-6706,TiTlPO5,0.0
mp-780327,LiMn3(BO3)3,0.09305296079425672
mp-1094203,La2Mg,0.05850058666666635
mp-680760,In4Br7,0.009255792670455064
mp-707703,Th8Al4H11,0.026740360579712075
mp-765649,Li11Ti12(NiO8)4,0.09094244419493602
mp-672356,MnSbPt,0.26901344000000016
mp-980750,YAs3,0.2816474687500001
mp-978280,Mg3Ga,0.043716818750001885
mvc-4868,CaSnO2,0.19411217687499333
mp-772568,Li2Cr4O13,0.09681356260965046
mp-850897,Mn8O13F3,0.06918637609374477
mp-10891,MnAlPd2,0.03132237625000124
mp-868342,Li4Co5O12,0.055302809484126136
mp-1030892,Mg6SiBiO8,0.6736866020312497
mp-31970,LiMnPO4,0.010690723928571622
mp-777026,FePO4,0.02462410916666791
mp-8877,Sr4Al6SO12,0.0
mp-505164,NbTe4Ir,0.0
mp-554614,Cu3(AsO4)2,0.0
mp-15109,Sm(ZnP)3,0.0
mp-22056,YIn2Ni,0.0
mp-14474,Ta2PtSe7,0.0
mp-1096534,YZrPd2,2.8414820025000003
mp-699330,LiCr3O8,0.0032382162847230944
mp-1093763,YTlRh2,2.2471223012499992
mp-1594,Ni2Ge,0.030364934166666305
mp-25906,Bi(PO3)4,0.02612667378676381
mp-756190,Cd(GaO2)2,0.06863293500000013
mp-17688,CsGaTe2,0.0
mp-21235,Mn2VGa,0.0
mp-1033173,Mg6BSbO8,0.6720232710416685
mp-1008501,Be,0.05232512750000007
mp-867108,LiDyTl2,0.0
mp-555474,Sr(ClO2)2,0.16289972404761954
mp-556762,BS2N2OF7,0.2260531439864151
mp-631254,KMnRu,1.5412684383333346
mvc-4936,Mg3Si4(NiO7)2,0.10049776025362167
mp-17794,HoGe2Ir,0.0
mp-10850,SbTePd,0.4546241447809534
mp-20103,TmInPt,0.0
mp-1096168,Ca2ZnAg,1.4491967578125005
mp-1007768,ZnHCO4,0.10473213508928493
mp-28804,TcO2F3,0.0
mp-1098838,Mg30CuNiO32,0.009775665000001156
mp-1093746,NaAg2Pd,1.475389665
mp-778419,Na14Cu2O9,0.07548147263333238
mp-762722,LiCoSiO4,0.08250029528570124
mp-1096262,MgZr2Tc,3.1692336709374995
mp-14563,NaCa3IrO6,0.0
mp-570454,TaN,1.3186447450000005
mp-945184,YCuTe2,0.0
mp-1021876,Mg6NbNi,0.2041830612499997
mp-645302,Al14Co5Si2,0.00379414595237737
mp-867890,AcCd3,0.0
mp-1009730,Ca2Sn,0.03183334583333286
mp-570319,YCo3H2,0.1341384944444446
mp-1726,KO3,0.07804560531250004
mp-1028380,CsMg14Ni,0.22663932374999995
mp-760501,TiGa2O5,0.03903342343749916
mp-30488,CdHg2,0.02909047833333384
mp-777028,LiCo2(PO4)3,0.08827432131946544
mp-1018712,HfGa4Co,0.1357998404444407
mp-764172,V4(OF3)3,0.0021047684374870808
mp-1078919,CsV2O5,0.10072007156249983
mp-754306,Ce4SmO9,0.026484205520812758
mvc-6033,SbO2,0.2806489666666669
mp-768786,BaYI5,0.09775575053571606
mp-29267,Sn5Sb2S9,0.03994070421875051
mp-849536,Ni3O4,0.04757579000000423
mp-778276,Mn3NbNi2(PO4)6,0.058476667361109236
mp-862720,Sr2CdIn,0.0
mp-1022825,Mg6MnBi,0.14432386249999984
mp-2089,ZrTe3,0.0
mp-770719,RbLi2Ni2(BO3)3,0.07256092766806432
mvc-11457,WO3,1.2217081949999982
mp-567201,PrCu6,0.001404738928571625
mp-975886,PrSmZn2,0.006418974999999882
mp-1019744,K2Al2Si3O10,0.01803672341911877
mp-606149,SrGd2Co2O7,0.04107491130209874