mpid,formula,e_hull
mp-1001824,IrC,1.4384894412499998
mp-972415,YErAl2,0.0147126329166678
mp-640075,FeSiGe,0.1489964795833325
mp-722862,CdH3NO5,0.0
mp-675589,Li2CuP,0.03761683749999811
mp-645338,Sm(BO2)3,0.0
mp-865735,Li2YbGe,0.0028528337500000056
mvc-15307,Ca2TiN2,0.12641062533333436
mp-1070275,Al3Tc2,0.19427323880000105
mp-27336,CsCuBr3,0.0
mp-699482,Na2H20CO13,0.014370152499998843
mp-1066131,YTlS2,0.0
mp-866774,Gd3Ni19B10,0.0
mp-569563,Ba3Zr6BeCl18,0.0
mp-773449,Fe4OF7,0.07524940624999665
mp-862954,PmPd3,0.0
mp-974866,Rb3Na,0.035317381250000064
mp-10264,NiTe,0.0
mp-1009731,ReC,1.1312861268749987
mp-20199,PPbS3,0.0
mp-1028767,Te6MoW3S2,0.11075373958333223
mp-704492,MnPO4,0.09969912541667547
mp-19783,GdAg2,0.0
mp-1079468,ZnCu2SnTe4,0.00032069000000189973
mp-24885,CoGeO3,0.0
mp-3471,La2Ni5B4,0.0
mp-772137,Er2Sb2O7,0.015799333977287944
mp-1024051,Na2Zn2Se3,0.04621312589285731
mp-1097910,NaMn8O16,0.0005873765999968582
mp-27919,Ti8C5,0.0
mp-764917,Li3VO3F,0.08588947312500039
mp-867680,NaTlO,0.05417428166666705
mp-615937,MnB2F8,0.0
mp-541000,K3As11,0.0
mp-2389,NdMg2,0.01729740000000035
mp-1016626,HfMg6Cr,0.2242687109374999
mp-15790,LiHoS2,0.0
mp-18902,Li2WO4,0.01528158714285599
mp-753477,Li3BiS3,0.08614809785714339
mp-1096090,NaTl2Hg,0.919563624375
mp-21766,Ba(InSe2)2,0.0
mp-694913,CaTa2Ga2(CuO4)3,0.09532688062499872
mp-1075412,Mg5Si6,0.2537392963636353
mp-997536,Li3V2(PO4)3,0.005073733125002811
mp-770246,Li4MnCrO6,0.012229756249997337
mp-676536,KBiO3,0.030864946055555894
mp-540904,ThI3,0.0
mp-569294,NdB2Rh2C,0.0
mp-22325,P2Pb2O7,0.0
mp-779871,Na4Co2O5,0.043115813409090535
mp-1095748,Mg2CdHg,1.04514908875
mp-559540,RbZnSClO4,0.0
mp-1079040,CsDyBr3,0.09381402655555426
mp-1094853,LiMg,0.04738010750000021
mp-866175,Yb2CdIn,0.0
mp-27844,NiP,0.018410029166665787
mp-17791,Cd4SiSe6,0.013478141818182188
mp-642999,TmH3(CO2)3,0.09682472360576977
mp-1079947,Pd3N,1.221420353154998
mp-777596,Li5V6O5F19,0.06825854157143141
mvc-2938,CaNiF5,0.007307143214288382
mp-25606,LiNiO2,0.04839623062499943
mp-555048,NaAlCdF6,0.0
mp-762967,Li4V3P8O29,0.04881411928030754
mvc-785,YTi(WO4)2,0.06993543375000222
mp-773524,Na3Li3Fe2P2(CO7)2,0.02508851211538321
mvc-9251,CaCoBiO5,0.03362302075521928
mp-571100,CsAgBr2,0.00501243687499997
mvc-12147,YCr3O9,0.24775589269230736
mp-1035981,YMg14VO16,0.1298441954687517
mp-1023280,Mg6AlCr,0.164300769
mp-1094205,Mg5Sn,0.04273888000000037
mp-1094617,MgGa,0.06788130604166652
mp-980195,Tm6Al7Cu16,0.0
mp-733577,TiH2N2OF4,1.0817786780240013
mp-1011730,Cs2Se,0.2938650374999998
mp-569396,BaLi2(MgGe)2,0.0
mp-1069882,LaSi3Os,0.0
mp-765356,Li2VF6,0.07535111388890138
mp-765766,Na11Mn13O32,0.05385570791294647
mp-703684,MnH12N2(Cl2O)2,0.020924572857143886
mp-37312,Na(La2Se3)4,0.0
mp-744439,MoH4O5,0.018160631437499568
mp-762025,NiP2(H8O5)2,0.10245592426436634
mp-780927,Li2VP2HO8,0.04084598214286217
mp-2719,DyB4,0.0
mp-542177,PuAl3,0.0
mvc-14606,Mg2NiSbO6,0.10365835522916632
mp-771454,Na3CrAsCO7,0.03304128641025628
mp-867301,Tb2MgGe2,0.0
mp-734377,KCdP3H8O13,0.02432056947115324
mp-505362,Ca(LuS2)2,0.0
mp-715432,MnO2,0.03656852416666645
mp-979941,Yb3V,0.43802224
mp-622086,La2GeS5,0.0
mp-28572,LaBr2,0.003959044333332606
mp-568562,Ni21(SnP3)2,0.0
mp-8924,Ba2LiFe2N3,0.0
mp-771843,Mn3(PO4)2,0.002492674999993838
mp-779170,Mn4O7F,0.06439762322917719
mp-570774,Zr5Al4,0.05237223138889213
mp-25943,Li2CuP2O7,0.0392310981250068
mp-990542,PuSb,0.048432030000000736
mp-867356,TcRu3,0.0
mp-570170,Mo15Se19,0.06501904227941235
mp-11788,YbSmSe3,0.17768342692812394
mp-562542,Cs4NaHf3H2F19,0.0
mp-1031346,KCeMg6O8,0.3924977373161784
mp-510052,Hf5(In2Rh)2,0.0
mp-2157,Co3W,0.0
mp-657176,YbBeF4,0.11678015472222116
mp-776886,Li2FeF5,0.04146401559028057
mvc-7559,BiAs2O7,0.14705085131250062
mp-26100,Bi2(PO4)3,0.08461391753676395
mp-640562,KYb3F10,0.009497880357141495
mp-1073232,Mg2Si3,0.2035689106111107
mp-22272,Ba2UCuO6,0.3499448429999763
mp-704112,SmCoSe2ClO6,0.0009670459545452204
mvc-10636,BaMoF7,0.0029614888888893627
mp-770575,LiCrPO4F,0.05374668109374703
mp-11344,PrO,0.06857223416666614
mp-1039357,CeMg2,0.020591118888889426
mp-569696,La(AlGa)2,0.0
mp-20440,MnNi2Sn,0.009504798645834532
mp-1095589,UCl2O3,0.3845474611666617
mp-554887,KUNbO6,0.0
mp-744413,Mo6H20Cl14O9,0.1915858278061222
mp-6979,ThGeS,0.0
mp-1098670,Mg30MnCuO32,0.019672745937500125
mp-6567,LiNd(PO3)4,0.07176862916666504
mp-19344,Cr2NiO4,0.0
mp-559090,VBiO4,0.021437935416667383
mp-754185,Y2MgNi2,0.0
mp-654812,CdCO3,2.89766337
mp-9503,BaDyCuTe3,0.0
mp-760485,Li2CuSiO4,0.12363390750000215
mp-1038250,CsMg30MnO32,0.1152435570429704
mp-753195,Li2WS4,0.031913129489796965
mp-11902,Ba2GeSe4,0.0
mp-866505,CaSnS3,0.16389135914999994
mp-705032,Fe3P3O11,0.043202700661749915
mp-761342,Li4Co2Cu3Sb3O16,0.10235830226190944
mp-567082,Ti4As3,0.0
mp-573697,CsCl,0.0
mp-585378,Li2Co3(P2O7)2,0.003229248804380802
mp-698060,PHOF2,0.009604164764286159
mp-13079,Mn2AlCo,0.032481709999999886
mp-757404,Li2Cu2Si5O13,0.08407544454545324
mp-1079134,Ni3C,0.060144336875000086
mp-707881,GeH12(NF2)4,0.07464279297304355
mp-1374,Zr5Re24,0.0
mp-13096,Y3AlNi8,0.2105662853508754
mp-567416,Ho3Mn3Ga2Si,0.11177117960317418
mp-769463,Li11Ti8Fe5O32,0.030621237139662583
mp-1039949,CeHfMg30O32,0.1270087841210934
mp-21217,URhS3,0.0
mp-768153,Li2AsPCO7,0.06319800812500098
mp-210,BaLi4,0.00835665666666685
mp-12304,Sc11Ir4,0.0
mp-1095291,Li2SnSe3,0.0
mp-568366,Tb4CdRh,0.0
mvc-5003,Zn2SbWO6,0.13865799524999645
mvc-8493,TiNiP2O9,0.12581654163462108
mp-9468,KCa9Mg(PO4)7,0.0
mp-1029059,Te4MoW3(SeS)2,0.08711633895833515
mp-683899,Cu2P8Se3Br2,0.0
mp-1032105,Mg6TiCuO8,0.2181583960937505
mp-143,Tm,0.0
mp-142,Ga,0.0
mp-5342,GaAgS2,0.0
mp-1038517,Mg30BWO32,0.15524029126302086
mp-29175,Ca2AuN,0.0
mp-976142,PrDyTl2,0.005476382500000375
mp-9961,Ti2CdC,0.0
mp-853268,Fe10O9F11,0.085868796333334
mp-519,USb,0.07564013375000034
mp-1073672,MgSi2,0.21904929509259485
mp-559023,Na24In5O15,0.003849110419031021
mp-23293,TbCl3,0.0038002599999993336
mp-1097285,Cs2AgAu,0.41338232
mp-10903,AlPt,0.10437638124999983
mp-983551,CePmTl2,0.0
mp-505693,Mg2GeB2Rh5,0.0
mvc-1626,W3Se2ClO8,0.6219399059412201
mp-768094,Na2FePCO7,0.006253581041653965
mp-1096937,CuI,0.23765708250000064
mp-542807,Cu2Te2Br2O5,0.023043951136362928
mp-850018,Li3Mn4(BO3)4,0.04490835677534122
mvc-3237,ZnCrSiO5,0.09229127642361856
mp-540204,Co2P3O10,0.0171127866666545
mp-865951,Ac2IrAu,0.0
mp-1034297,SrMg14SnO16,0.1897206149218631
mp-17460,Lu5(Co2Si7)2,0.0
mp-22317,EuGa2,0.0
mp-680664,U4Ga20Ni11,0.005380678785715354
mp-763561,Li2P2WO8,0.006784726538455743
mp-972993,LiSmAu2,0.0
mp-763764,LiMnPH2O5,0.020956845124995738
mp-21598,SiNi2As,0.038600469687499306
mvc-1666,Ta2ZnO6,0.0548517512962956
mp-773629,Li4Ni2(PO4)3,0.051282072708331405
mp-18133,Zr2Co4P3,0.0
mp-766973,Li8Mn(FeO4)3,0.07107555687500078
mp-556389,UTl2(TeO4)2,0.00308052923076918
mp-1039821,Mg30NbSiO32,0.13021682648231714
mp-1032522,Mg6FeSiO8,0.41276743921874814
mp-972601,SmLuMg2,0.005291862499999578
mp-1014227,Ti2ZnN,0.0
mp-1079895,Np3Si2,0.3605098755
mp-1070369,NdSi3Ir,0.0
mp-581813,Na3Fe2P2O8F3,0.0
mp-777059,Li4V3Ni3(WO8)2,0.041480142916664235
mvc-12181,Ca(CoO2)4,0.05436750923076872
mp-675784,H(CO)2,0.2858265142499832
mp-554710,AgAsC4S8(N2F3)2,0.16471037436139824
mp-19584,K3NdV2O8,0.0
mp-551835,Ba2I2O,0.0
mp-1075311,Mg3Si4,0.19197262261904724
mp-13541,Sr2Mg(BO3)2,0.0
mp-972831,SiGeN2O,0.045336392333331865
mp-21143,CeP,0.3449770699999997
mp-1028272,Mg14TiSn,0.06687468212500036
mp-690099,Rb6Fe2O5,0.0
mp-25568,LiMnH6O7,0.06543829231944454
mp-763164,FeOF,0.07423416944444572
mp-780597,V2(OF)3,0.032626298680555436
mp-540152,MnP2O7,0.03007763174999933
mp-863681,ErThTc2,0.10033950187500018
mp-1040380,KMg30BO31,0.1206747504761907
mp-2967,La(CoB)2,0.0
mp-29616,CsCrCl3,0.008333363444443798
mp-573877,Tm3(CuSn)4,0.13059553636363574
mp-21176,KCeGeSe4,0.003925633750000657
mp-569414,Lu6AgTe2,0.0
mp-9274,Rb3Sb2Au3,0.0
mp-1096966,CrN2,0.3345170961114263
mp-1035116,Mg14CoSnO16,0.11798655015625135
mvc-16535,Ca2MnWO6,0.020837344999998564
mp-628817,P2W9O31,0.004359922261874871
mp-707052,CuH12Se(NO)4,0.32631061372666625
mp-4785,CeAl3Pd2,0.0
mp-28989,Li10BrN3,0.0
mp-753692,Ho2Ge2O7,0.009048487500000313
mp-849570,Li2V3SbO8,0.0005897116071427178
mp-3354,Ho3(GePd)4,0.0
mp-542197,Ba4Ca4Tl3Cu6O19,0.021368196909723025
mp-865222,Dy2RuRh,0.0
mp-562631,K2SO4,1.8164972889285715
mp-31476,CsHC2,0.42429183244791707
mp-764390,NaNi4H9(CO5)3,0.00662533575000257
mp-6693,CaZn(SiO3)2,0.03739434491666849
mp-614768,Cs3NiF7,0.007368686818181479
mp-999471,NaNdSe2,0.0
mvc-5029,Zn3Co2(Si2O7)2,0.12071594791094498
mp-35152,Sr2H5Rh,0.0
mp-24081,ScHCl,0.0
mp-850487,Li7VGeO8,0.0591621032353089
mp-554935,Pr8Sb2S15,0.0
mp-10609,Lu3SnC,0.0
mp-764176,Mn12O7F17,0.06779872940972709
mp-1093862,CrSi2Tc,3.0871421324999986
mp-571580,Er14(InPd)3,0.0
mp-645044,MnHg2C6(SN)6,0.1870313848217
mp-1014342,CrN2,0.3072959642066646
mp-11882,TiCuHg2,0.25399853875000034
mp-1008505,BaPd,0.0
mp-1092268,GaSiCN,0.3849321058854169
mp-1079184,MnGeRh,0.010958169999999434
mp-1065,LaSb,0.0
mp-1095878,MnZn2Pt,2.0609905515131595
mp-556419,ReO2F3,0.00419491020833096
mp-543085,La4NiO8,0.0788245984134619
mp-1035274,Mg14NbCuO16,0.1464216494866042
mp-28740,SrTi11O20,0.0
mp-31307,Ba2SnSe5,0.0
mp-8977,Ca2PN3,0.0
mp-978537,SmHoZn2,0.004887155000000032
mp-628690,SbN6Cl,0.11669232977750088
mp-556644,Ba7MnFe6F34,0.0
mp-673090,LiSb2P5O18,0.06780285983974288
mp-1097498,Mg2CdSn,1.21451399625
mp-695699,Te2AsS4N4(ClF2)3,0.2199082058967692
mp-543105,LiMn2NiO6,0.06327124656249694
mp-761535,LiFePO4,0.08274637839285504
mp-580744,Hf6Si7Ni16,0.0
mp-865117,NaErTl2,0.0
mp-25372,LiCuO2,0.07322798250000062
mvc-8520,Si4BiO10,0.14336461049999372
mvc-16241,Al2FeO4,0.0
mp-651688,Si4Ag10O13,0.05313721000000005
mp-569708,TiPt3,0.0
mp-32315,Li2Ni(PO3)4,0.011962193464917448
mvc-1234,MgNiP2O7,0.0
mp-19794,EuSnP,0.0
mp-23397,MoPCl9,0.0
mp-778760,Ni4(PO4)3,0.05215392148025
mp-778748,Li3FeBO4,0.0692828606944369
mp-1020032,Li8N3O,0.2014561623958349
mp-571199,TiAl,0.0020926949999999773
mp-5063,YAl3Ni2,0.0
mp-752671,Ba2SrI6,0.01823025361111119
mp-978555,Sm2CdIr,0.0
mp-541758,Ta2Se17Br12,0.0
mp-853192,Na6Cr2B4SO16,0.04978133795977957
mp-569339,Cu10Sn3,0.197668128846146
mp-777255,LiFeBO3,0.048683115277775364
mp-776188,Li4Fe(TeO4)3,0.03738903590624877
mp-1080231,CsTlCl3,0.016147285750002904
mp-571363,YbSbPd,0.07898851583333323
mp-757862,K4Nb15O24,0.013157339486433273
mp-1018089,CaZnSe2,0.2042256724999998
mp-631566,TaAuBr,1.5497741408730157
mp-1099264,Mg6MnC,0.6358931490896742
mp-672271,NbSe2,0.3714788474999988
mp-554631,Sb2(PO4)3,0.023938896544104967
mp-20021,DySn2,0.0
mp-689979,LiFeP2O7,0.16094250000008348
mp-690149,Li(CoO2)8,0.03251976550000002
mp-685339,Bi12Ir12O41,0.017259740310900714
mp-1020011,Li14P2(N2O)3,0.0
mp-765969,VFeP2(HO5)2,0.05246131414062472
mp-34465,Li2HN,0.05629720656250025
mp-1096994,HfN,0.028296212500000806
mp-1021681,Mg6VCd,0.16824314250000014
mvc-11647,V2O5,0.01206663035713973
mp-705361,LiCrP2O7,0.11949957136363755
mp-24727,TmH2,0.0
mp-1096961,CrN2,0.3414820279566637
mp-1029497,SrGeN2,0.0
mp-1097624,SrCaZn2,1.434473575
mp-1025685,Te4Mo3Se2,0.026119631666666088
mp-774043,MnV(P2O7)2,0.020174660250013687
mp-17918,Ba2SnS3F2,0.0
mp-762194,Sr12Fe8O27,0.0
mp-761940,Li2MnCo3O8,0.0
mp-865184,LiScPd2,0.0
mp-1079044,TmNiGe3,0.0
mp-764585,Li6MnV3(PO4)6,0.057299536875013324
mp-1029112,Te3MoWS,0.07086297979166377
mp-722188,NaCa4Si8H16O28F,0.01852794907327571
mp-33690,PrSO,0.1128928699999996
mp-1040009,LiMg30BiO32,0.0359763539843776
mvc-8944,LaMgFeNiO6,0.08285782393750196
mp-20548,U(Al5Fe)2,0.0
mp-1098497,NaMg30CO32,0.14345534438476548
mp-627206,Si2H2O3,0.6328734328928558
mp-11270,MnBe2,0.0
mp-767455,SrLiLa3FeO8,0.011053729999996877
mp-2271,NaPt2,0.0
mp-973556,LuTh3,0.04319328500000008
mp-642649,BaH2O3,0.2754378892708358
mp-1022834,HfMg6Mn,0.20672958390625013
mp-1032583,SrYMg6O8,0.3085450313281237
mp-1097258,CdHgPd2,1.4673146999999995
mp-771028,Li3SiBiBO7,0.0959779067628137
mp-1099282,Mg6CuNi,0.1635792181250002
mp-38,Pr,0.007137797499999544
mvc-1467,YCo3Se2ClO8,0.012643209833330893
mp-1072185,PrAsSe,0.0
mp-25526,FeP2O7,0.04455889247916822
mp-864674,Ho2AlZn,0.0
mp-571183,TmFe2,0.0
mp-695000,LiMg6Sc(SiO3)8,0.28755109481249796
mp-8876,Ca4Al6SO12,0.0
mp-685353,Bi15PO25,0.007601278191056159
mp-778411,V2CoO6,0.09323271000000766
mp-6499,BaLiBO3,0.0
mp-29183,LaNb7O12,0.0
mp-780586,LiCoP2O7,0.029817918636364737
mp-1078952,Mg(N3Cl)2,3.4956535717466672
mp-2571,Rb2O3,0.05585133849999924
mp-780353,Na6B4Sb2SO16,0.0725341104956776
mp-1027437,Te2Mo3W(Se2S)2,0.05830008666666675
mvc-3070,Zn4Co5(TeO6)3,0.0
mvc-13472,CaBiF6,0.007999558281249541
mp-10426,Nb2O5,0.3446110478571427
mp-989561,NaTl2GaF6,0.0
mp-2653,BN,0.09349915750000017
mp-1019603,Cs2BaP2O7,0.0
mp-866160,Y2AgIr,0.0
mp-1097292,Nb2FeTc,3.9901801237499983
mp-990436,ScClO,0.7702771931944437
mp-1026794,LiMg14Mo,0.11521384062500005
mvc-1329,BaAlW4O7,0.8639396914272837
mp-1005693,Sm2InHg,0.0
mp-853138,Li4CoNi3(PO4)4,0.008062737098218697
mp-13068,Lu2O3,0.0928218707500008
mp-8763,Tm2S2O,0.02285526112499969
mp-999498,N2,8.881784197001252e-16
mp-1016281,Mg7Mo,0.21412646125000026
mp-680463,Rb4Pb9,0.0
mp-1035831,Mg14ZnFeO16,0.009428849062500078
mp-4602,Tb2Ti2O7,0.019210210227271318
mp-1037502,Mg30ZnCrO32,0.020049791093749825
mp-780588,Li3MnCr3O8,0.04009797100000334
mp-1077595,CN2,0.6967145059133326
mp-633538,B9C,0.3630168948333328
mp-1074207,Mg4Si7,0.20277291828283006
mp-641500,Na5Co2O5,0.0017009668055534275
mp-12047,K3Na(RuO4)2,0.00587915928573679
mp-775128,Fe3Sb(PO4)6,0.06146829062909109
mp-560773,K2NaS2ClO6,0.004423393523539154
mp-558233,TiCoO3,2.1182000001118688e-05
mp-555443,PNF2,0.006803111750000035
mp-1027981,Mg14ZnFe,0.11967134598750008
mp-541856,U3TiGe5,0.0
mp-19292,Co(AsO3)2,0.0
mp-19767,DyCoSi,0.0
mp-23288,AlBr3,0.0
mp-18195,Lu2SiO5,0.02361811625000776
mp-616766,RbMnF4,1.607958333327275e-05
mp-566881,P2W2O11,0.015604244833332004
mp-1078240,Si6Ni3Au,0.0
mp-778848,In3NO3,0.04019543928571333
mp-866650,La2Si4CN6,0.0
mp-864934,MgAg3,0.0
mp-773742,CoOF,0.10059444208333268
mp-556002,Li6Cu(B2O5)2,0.044642995357131454
mp-25174,W3O,3.163346988125
mp-569044,Bi2Te5Pb2,0.05714420555555578
mp-653569,Al2P2O11F,0.4736214207421882
mp-540884,YCl,0.051052047916668286
mp-756936,Sr3Li4La5O12,0.035345459375000665
mp-1014212,Si,0.5410278599999998
mp-1003548,CaMn2O4,0.07240003892855995
mp-554139,Ba3Ga2(Ge2O7)2,0.032394249891300575
mp-765155,Li5V3P8O29,0.03273669135183699
mp-15649,As2Ir,0.0
mp-557049,CdSbS2Cl,0.0071188730000004705
mp-766454,TiO2,0.05875285750001603
mp-768161,LiSiPCO7,0.09234427212120976
mvc-10212,CaSb4O9,0.22760802053571805
mp-1011696,Cs2Se,0.02101982499999977
mp-571016,KSnSe2,0.09314507812498628
mp-38407,Li5SiAs3,0.02966295140432252
mp-1020590,Na8N3O,0.3946798387499997
mp-548505,FeCoPO5,0.0011672916666398696
mp-1029903,LiNbN2,0.0
mp-17880,Al13Ru4,0.0
mp-9454,Sr3MgIrO6,0.0
mp-13973,Gd2SeO2,0.0
mp-19762,UPb3,0.1608141424999996
mp-769205,Li(NiS)2,0.03552211416666129
mp-28483,WBr6,0.0
mp-861683,Mn3As(HO2)4,0.0
mp-769437,P5(WO6)4,0.007902801111114854
mp-756182,RbHO,0.05100208333333178
mp-767464,LiVCrP2(O4F)2,0.010397557916676623
mp-865428,UP3,0.0
mp-1080382,ErInPt4,0.07069051208333388
mp-1201,Sb2Te3,1.0167346
mvc-2205,MgCr(PO3)4,0.012688247977775012
mp-7651,ThSiO4,0.03542485375000126
mp-1067619,Ge,0.5949672700000006
mp-861738,CaMgPb,0.0
mp-21915,Ce3Co4Sn13,0.013361780166667005
mp-1038123,CaMg30NiO32,0.012982699218750504
mp-1032931,HfMg6AlO8,0.3435163407343769
mp-1028067,Mg14MnB,0.29171136328125025
mp-1069809,BaSi3Pt,0.0
mp-761333,Li2CrSiO4,0.03788796020833729
mp-32401,NiP2O7,0.14330491437501447
mp-675118,Y2Th8O19,0.0414094020689646
mp-767931,Na4Ti5Mn4O18,0.027509087620980918
mp-1029626,Ba3IrN3,0.0
mp-720642,NaB3H4O7,0.0
mp-984518,Ga3Cu,0.12787113750000012
mp-1027963,YMg14Sb,0.07559308875000026
mp-30880,Tb2Zn17,0.0016366752631580272
mp-559692,Ta2Cd(P2O7)3,0.0
mp-863031,KNaGdTaO5,0.0
mp-765187,WOF4,0.06087289708333276
mp-566697,KCa9Mn(PO4)7,0.0
mp-752669,CeHfO4,0.055430946249996886
mp-8634,Mn,0.07506572000000132
mp-10877,Ca(Al2Cu)4,0.0
mp-505390,Ba2ReO5,0.0
mp-570448,CdI2,6.650381196582345e-05
mp-555596,K6Si2S6O,0.0
mp-18500,K3Sn4Au,0.0
mp-773118,Ba6Li2Ta9Ti7O42,0.006526294112550346
mp-13907,CdSnF6,0.0
mp-768978,Ho2(SO4)3,0.0
mp-776052,Na5Ni2P2(CO7)2,0.022854657425001257
mp-29097,Hg3TeBr4,0.0
mp-699151,Sr6Mg7H26,0.004108268076922883
mp-765748,NaVPO5,0.03195872187498505
mp-5893,CaSiO3,0.24474796699999946
mp-978856,SrH3,0.3487646653450001
mp-675504,Li19(Mn3As4)3,0.1196495394374999
mp-559300,KLi(PO3)2,0.006839326125001044
mp-767071,Li2Co(CO3)2,0.07596387818181237
mp-10173,Li,0.0019740200000000208
mvc-5605,MgMnP2O7,0.03646127477272376
mvc-16540,Ca2MnFeO5,0.008352571527771245
mp-754710,Sr2CaI6,0.03966749388888946
mp-768670,K3MgPCO7,0.003975313942302883
mp-10374,Cr3PtN,0.0
mp-554263,Ca2BClO3,0.0
mp-753690,Li4H3BrO3,0.0
mp-567156,Pr(Al4Co)2,0.0
mp-565930,Ti4Fe(PO4)6,0.0
mp-754840,TaAsO4,0.054823344583329714
mp-2258,Cu3Au,0.0
mvc-4142,Zn2NiSbO6,0.124936628718749
mp-1078142,DyIn5Co,0.0028345635714273065
mp-20811,UCoSi,0.08211374976190022
mp-862553,Sc2BeRu,0.0
mp-558920,NaNbO3,0.013129570250008271
mp-1071293,CsMnAs,0.048315972698413034
mp-675638,Pr2PbS4,0.026803118928572008
mp-771351,FeCu(PO4)2,0.08114257775173518
mp-849413,Li5Mn6(BO3)6,0.0367694265476004
mp-560170,Nd5Te2Cl3O10,0.0
mp-555255,SbSNF5,0.04237139309879456
mp-504251,Mn4(PO4)3,0.0593537511841955
mp-625555,H7BrO3,0.034328763181817656
mp-652025,Na8Si7O18,0.9849408556818152
mp-833,CaPd2,0.0
mp-636839,HgN3,0.2804481100900009
mp-1068300,Ca(FeAs)2,0.0
mp-762214,Li2Co3SnO8,0.0124396692857065
mvc-15856,MgFeF6,0.005336562351249796
mp-28677,BiS,0.22200853341666613
mp-571453,K2SnCl6,0.0
mp-982010,Pr2CdAg,0.01213471749999995
mp-20844,Dy3(CuSn)4,0.0
mp-1077349,ThGeTe,0.0
mp-1027110,Te2MoWS2,0.15424191750000027
mp-552185,AgNO3,0.0
mp-23798,H4OF2,0.0
mp-1079250,SmNiSb2,0.010073333749999414
mp-644875,Ba2(InAs)5,0.0
mvc-15871,AlCoO3,0.19449973712500235
mp-1080696,U(CuSn)2,0.08285705266666721
mp-770605,ZrCrO3,0.08124449000000311
mp-555845,BaLiZr2F11,0.0011824736667085394
mp-762602,Li5Fe5O12,0.056417136704541626
mp-681439,LiZr2(PO4)3,0.01586694736110239
mvc-3,Nb2Zn2SbO8,0.12599206115384656
mp-762905,Li6Mg(Ni6O13)2,0.05126789630555617
mp-1031458,HfMg6VO8,0.3444715676562504
mp-1018683,DySe2,0.0177588403559028
mp-675532,LaTi6O12,0.3061775479605249
mp-6032,SrSi2(BO4)2,0.0
mvc-618,ZnSn3(P2O7)2,0.08041977934659084
mp-1100634,Li9Mn2Co5O16,0.18202805687496326
mp-744580,ErCrHO5,0.0
mp-866177,YbAgPd2,0.0
mp-1059720,ZrOs,0.010183350000000143
mp-541962,KGd(WO4)2,0.0
mp-29720,Li21Si5,0.0
mp-1097197,LiZrCu2,2.274210500833334
mp-707938,MgH18C4SN8O9,0.004245382319076896
mp-1093640,MgGaCo2,2.3148478534375
mp-767678,Li8Cr3TeO12,0.09261383125000132
mp-850983,Li2V2P2(H4O5)3,0.035090586590910355
mp-849748,NaMgP3(H4O5)2,0.0
mp-567617,RhN2,0.1089325259133318
mp-865981,TmMgHg2,0.0
mp-1027383,Te4Mo3WS4,0.08098431250000004
mp-25071,MoPb2O5,0.0
mp-984872,CsPb2Cl5,0.0
mp-863651,Ho2CdIn,0.0
mvc-7240,BaAlCuSnO5,0.5439450054861101
mp-32672,Pu2Se3,0.0
mp-10953,Sc2CdS4,0.0
mp-34713,Na(Pr2Se3)4,0.0009177433516454061
mp-561848,C3O2,0.5096978357500035
mp-5090,Ti2FeSe4,0.05934026571428853
mp-30468,ThBi,0.012931449999999955
mp-570217,Tm(SiOs)2,0.0
mp-542218,NaVBP2H3O10,0.00014254750009978776
mp-542133,Ce3Si2S8Cl,0.003608945595238389
mp-689968,Li2MnP2O7,0.03996333427084586
mp-14676,NdTa7O19,0.0
mp-27808,Te6Cl2O11,0.00170869006578922
mp-567008,Rb3MnO3,0.0
mp-767009,Li4Mn2OF7,0.06045766794642837
mp-24969,Fe2GeO4,0.0
mp-1020115,MgSiO3,0.011106927000001932
mp-772324,Li3MgNi3O8,0.0640812455000015
mvc-14626,Mg(CoN)2,0.3417982427500021
mp-764778,Li3MnO4,0.06161978843749871
mp-1039439,CaMg,0.08414903041666677
mp-766416,K2UH6C2SO13,0.03241300014545345
mp-867271,Be2CoNi,0.0
mp-551135,BaCuB2O5,0.03228256592591805
mp-769334,EuSeO4,0.0
mp-29535,CeSiI,0.0
mp-17869,NaCuF3,0.006433532499999117
mp-1094964,HfMg,0.1877980174999996
mp-780524,LiMn3(BO3)3,0.0975531248567556
mp-83,S,0.0380127948660709
mp-1023,Ho2Co17,0.0
mp-1095967,La2AgOs,2.011441463125
mp-504575,MoOF4,0.0
mp-761467,LiFePO4,0.06306450166666533
mp-505659,Rb2NaMn(CN)6,0.14735246078125194