mpid,formula,e_hull
mp-582994,KAg(CN)2,0.19318062704861386
mp-758844,Li3CuSiO4,0.09892477249999933
mp-24991,NaFe(GeO3)2,0.0
mp-850076,Li2V3P4(HO4)4,0.03551512054956607
mp-1078585,GdAl,0.0
mp-604516,Y2AlNi2,0.0
mp-997029,TlCuO2,0.04471088093749653
mp-1002109,VCo,0.11588536708333486
mp-1007906,ErH,0.17059592624999895
mp-990083,MoS2,0.16388640888888872
mp-1022054,Mg6CoSi,0.2644067440624997
mp-770122,Li8TiMn3(PO4)6,0.04161895101190805
mp-763492,Li3CoSiO5,0.03560066725000688
mp-1023291,RbCaMg6,0.2555503481250001
mp-23672,PH6NO4,0.0
mp-865538,Ti2RePd,0.0
mp-19256,Er2Mn2O7,0.0
mp-569125,Mg3In,0.0
mp-1036803,Mg30VCrO32,0.016736416562499024
mvc-8010,FeAs2O7,0.12112717264583585
mp-5916,Yb(SiNi)2,0.0
mp-775451,Li4V2Cr3Sb3O16,0.09703867636905628
mp-504312,Fe4P7O24,0.014381675803567973
mp-561983,Eu3OsO7,0.0
mp-1093913,LaZnAg2,1.8510105025000008
mp-30755,La2Sn5Rh3,0.0
mp-861645,Ca2MgTl,0.0
mp-770475,Na3BiBAsO7,0.022682554712971204
mp-1095065,Sm2InNi2,0.0
mvc-8400,V2ZnO5,0.02729184625000336
mp-974949,Rb3Ir,0.7897603274999989
mp-554658,Cu(SbO3)2,0.0008450872222312
mp-36225,Na3ZrF7,0.014360771818179074
mp-704251,LiFePO4,0.052173025714284726
mp-510643,LaMg2Cu9,0.0
mp-861944,KNaPrTaO5,0.0
mp-1078249,Co(RhSe2)2,0.02391155857142735
mp-21224,Sm(GeRu)2,0.0
mp-29917,Ca5(CuO2)6,0.017132731521743768
mp-1096069,Ba2NaIn,1.1949162721875002
mp-14659,KAsSe2,0.0
mp-770343,Li3V(BO3)2,0.0853456700000006
mvc-634,TiAl(WO4)2,0.08280315668268834
mp-565208,Li2U(MoO5)2,0.0
mp-1023495,Mg15Bi,0.02774568312500003
mp-861746,Li4V3CrO8,0.009285021562498665
mp-762193,Fe3Co2Sn(PO4)6,0.04989348149305162
mp-29177,BaTe2F10,0.0
mp-867807,LiYTl2,0.0
mp-766301,Ba2CaI6,0.04446965194444452
mp-19806,USiIr,0.0
mp-849971,LiVF4,0.07288151916667651
mp-570845,Zn(GaNi)3,0.0
mp-765451,Li3V4O5F7,0.08410917307016952
mp-17043,Tm2ZnS4,0.016272449821428836
mp-1022980,Mg6MnV,0.3388546562500005
mp-27451,Tl3PbBr5,2.584944444050663e-05
mp-1037499,HfMg30FeO32,0.09163116660156324
mp-706566,Co6C13(SeO6)2,0.4491971565909117
mp-1079926,La2ZrNiO6,0.20938327975
mp-6669,Sr5P3O12F,0.0
mp-983459,HfZr,0.0
mp-9842,RbSm(CO3)2,0.0
mp-30732,HoTlPd,0.0
mp-974820,Rb3Tc,1.2356887150000002
mp-1006068,Gd2AgRh,0.025582594999999486
mp-998964,TiGaFeCo,0.0
mp-559817,Na3(CuO2)2,0.0
mp-604702,H10PtC(N4O)2,0.200361099608787
mp-1080313,CeSe2,0.08939420625000061
mp-570653,LaFe5H12,0.02313383308444461
mp-1079478,PrAgSb2,0.0
mp-1098382,KMg30WO32,0.08011703480468757
mp-1074815,Mg7Si4,0.298666246313132
mp-15547,Na2ZnGaF7,0.0
mp-675744,Yb4Zr3O12,0.03857597486841868
mp-612405,Fe3O4,0.2736352471428649
mp-25257,Li15Bi4(PdO10)2,0.025175014745949298
mp-31093,Dy2CoSi2,0.007028651375000194
mp-554568,H10C3NClO,0.2386052843749997
mp-1096289,Sc2InHg,2.230602809499999
mp-764940,FeOF,0.08561949555555426
mp-707251,CdH6(SO4)4,0.4168593822222304
mp-866081,MgSc2Os,0.0017814933333344387
mp-6942,Ho2CdS4,0.0
mp-755453,MnP4,0.03963141533333392
mp-602355,Cr3HO8,0.17880723661458475
mp-7868,PtO2,0.005574861666667985
mp-1095275,GeP,0.007256935119047014
mp-31475,Er4(Al8Pt3)3,0.0
mp-606213,Cs2UMoO7,0.0
mp-558507,TbMn2BiO6,0.7423822923125032
mp-767092,LiVSiO4,0.0757176033035698
mp-1025357,Lu2Fe2Si2C,0.0
mp-1071505,Sr2FeO3,0.0
mp-684815,Ba4La2Ti3Nb2O18,0.04192399040229766
mp-558466,AsS(BrF2)3,0.0
mp-1096755,Sr2LiRh,1.37912052
mp-753363,Li4Sb(TeO4)3,0.096927085968745
mp-1079860,HfGaNi,0.0
mp-866666,La2Mg(NiH4)2,0.0
mp-1023286,CaMg6Mn,0.18100707437499786
mp-794,CrTe,0.1326679762499996
mp-558212,KNaNdNbO5,0.0
mp-542021,Sc2CrB2Rh5,0.04643844137500075
mp-774538,Cr4(PO4)3,0.03973630065798517
mvc-836,AlFe(WO4)2,0.054472769391026084
mp-1098869,YMg30CrO32,0.0687282669531255
mp-2588,YCo3,0.0
mp-24121,Tb(HO)3,0.01574578892857037
mp-735626,Ca2Mn3P3H6O17,0.19751902409272226
mp-850163,Li3Mn3(PO4)4,0.06457569278846265
mp-861926,KGd2CuSe4,0.0
mp-559764,Nd3Si2ClO8,0.0
mp-976804,NiAgTe2,0.1162100899999996
mp-723044,ZnH12N3Cl5,0.0
mp-695655,KGaBP2H3O10,1.303271688541665
mp-554034,KLa2NbO6,0.0
mp-1096261,MgGaPt2,2.024972263125
mp-867,ErCd,0.0
mp-676540,TlSbS2,0.008364537500001212
mp-31440,LuZrSb,0.0
mp-542828,Dy5Si4,0.0182579376388885
mp-1098771,YMg30TiO32,0.0752015820312506
mp-998422,CuAgF3,0.0
mp-542455,Ca2B5Os3,0.0
mp-1022732,FeBiAsO,0.3624741799479159
mp-21763,Nd(Cu2P)2,0.0
mp-1035670,KMg14BiO16,0.1890832995312497
mp-780535,BaLu2O4,0.0467324597023886
mp-720328,KMg8Al17Si19O72,0.050144096905984085
mp-3218,Er(SiPd)2,0.0
mp-1040308,Mg30TiBO32,0.12209818253515793
mp-1099162,YMg14VO16,0.1298441954687517
mp-1007760,Ge,0.019626560000000737
mp-14716,Nd2Au5F21,0.0
mp-974368,Rh3Pb,0.09868628333333353
mp-541722,CsBa2Br5,0.0
mp-567680,BaCl2,0.030100561111113144
mp-863733,Pm2RuAu,0.0
mp-33652,Pr2Mo15O28,0.21402288329629293
mp-777479,VO2,0.03875223916666393
mp-555347,Sr2CoO4,0.009565134571428937
mp-1094395,Mg3Ti,0.16107624333333306
mp-1094186,LaMg5,0.09652858848485124
mp-31250,BiBO3,0.0
mp-770833,Li2SnBO4,0.07125962351562265
mp-976891,MgPb5,0.03811209416666728
mp-616378,CsSnI3,0.002924641999999533
mp-30704,Nb5Ga3,0.25532653531250205
mp-778548,Li2FeF4,0.07258136999999998
mp-778513,LiFeF4,0.06323730976852726
mp-1006150,Eu3Re,0.6823152275000002
mp-978823,SmY3,0.020159129999999692
mp-22050,Hf2In5,0.0
mp-1014261,IrO2,0.2580888150000007
mp-17363,BaHo2O4,0.0
mp-672217,La5Ga3,0.0
mp-1093597,InHg2Bi,0.79059351125
mp-31060,Rb4(BS)9,0.0
mp-766625,LiFe2(BO3)2,0.09462062017048024
mp-18983,ErNiO3,0.0
mp-674463,AlHO2,0.230128016250001
mp-768267,HoInO3,0.010214691583331437
mp-1079254,Co2As,0.07473724027777795
mp-22339,ThCoSn,0.0
mvc-11574,CaSi2NiO6,0.005258713499997292
mp-13599,NaSn2F5,0.0
mp-1080467,KCd4P3,0.0
mp-1069042,Eu(ZnSb)2,0.0
mvc-14400,Y2Mn3O9,0.11919091982148974
mp-772400,Li2W(OF2)2,0.002474448888888148
mp-555378,Rb2FeF5,0.0
mp-697211,Na2CaPb3(CO3)5,0.0
mp-863692,CsMn(CN)3,0.030149373463542517
mp-555493,Re2S2NCl11,0.03187992013770824
mp-763381,LiV(PO3)4,0.08719536319445265
mp-32857,Cu13Se8,0.0759657047619049
mp-864998,CaPuRh2,0.3988793009583329
mp-2400,NaS,0.0
mp-1030391,Te2MoWS2,0.11830111333333272
mp-29429,TeCF3,0.4211194159999998
mp-18772,Na4Mo(NO)2,0.06153147796296565
mp-1079933,Y2InAu2,0.0
mp-556287,NaBi2Sb3O11,0.0006050144117519808
mp-24422,CaHBr,0.0
mp-554599,SnS2(O3F)2,0.005319141193177225
mp-714976,CoO2,0.02668493583333209
mp-973270,Ho2RuAu,0.0
mp-22075,In7Pt3,0.004007037000000047
mp-1094363,YMg,0.14513623666666664
mp-505800,Cr4Cu3(PO4)6,0.019178239189182367
mp-1079264,Nb(SBr)2,0.0038300240000008756
mvc-2213,Fe(PO3)4,0.05599394339461572
mvc-12764,Ca3Fe2(MoO6)2,0.06919665039472278
mp-582360,TaPd3,0.0686197755000002
mp-763496,MnFeCo(PO4)3,0.02578843458334568
mp-21601,Tb(SiNi5)2,0.0
mp-770607,Li3VSi4(HO6)2,0.03356025426137421
mp-639748,SiO2,0.031611068796296486
mvc-5942,Ca2AgWO6,0.08433278950000211
mp-721958,K4P4(H2O5)3,0.014794552155196428
mp-558619,Li2Ti6PbO14,0.0
mp-997025,PbAuO2,0.028187757499999574
mp-582080,Cs3LaCl6,0.0
mp-574138,Cs2Te3As,0.0
mp-27352,Sr(Ag3O2)2,0.0
mp-686230,Li20Nb19O60,0.05549628191288036
mp-556672,Sn(SeO3)2,0.0
mp-2865,K2CuF4,9.073571428430682e-06
mp-510437,In3Pd2,0.0
mp-21132,U(GeRh)2,0.019864816499998383
mp-1074553,Mg4Si3,0.22675772408730266
mp-763365,Mn3O5F,0.05453413347223357
mp-728,Li2Pd,0.0
mp-669354,LaNb2CuClO7,0.06544524770833071
mp-555314,Sr7Zr(Si2O7)3,0.02089521071428635
mvc-10927,Al2Fe3F15,0.18623125425
mp-1038040,SrMg30MnO32,0.04048359296875058
mp-1098953,SrMg30VO32,0.04421951916992306
mp-767166,Li2V(CO3)2,0.07181960497159512
mp-566053,Na2VS2O9,0.0018607164880872773
mp-1018150,NbTe2,0.02970161444444397
mp-23043,RbPb2Br5,0.004170716874999592
mp-771999,Li4Y3CrO8,0.0518234484375002
mp-744853,Mo2H5C5N3O14,0.8367670962579101
mp-625108,H5NO2,0.5418663835516622
mp-1094332,SrMg,0.15880067854166668
mp-667295,Cs7Cd3Br13,0.0
mp-867151,ScPaOs2,0.0
mp-18189,LiTmSn,0.0
mp-765049,Li6FeO5F,0.08131796403846002
mp-35795,BiPbF5,0.055001808928570206
mp-1027833,Mg14ZrNb,0.12167990437500008
mvc-11208,La2ZnMoO6,0.08735393949999626
mp-8289,SnF3,0.0
mp-770600,DyWO4,0.01244214937500132
mp-560907,MoSeS2Cl5,0.0
mp-561166,Na2ZrGe2O7,0.0
mp-772489,Lu2WO6,0.0503730400000002
mp-767161,Li4MnF7,0.05143724666666216
mp-556954,Ba5Ru2Cl2O9,0.0047591050000033155
mp-505344,U3Co7B2,0.0
mp-1030787,CsNaMg6O7,0.5341833293333336
mp-1033259,Mg6CdBiO8,0.3354630565104175
mp-29579,Sc7NCl12,0.0
mp-643392,Ca(HO)2,0.03514181000000072
mp-863018,SiH9C3Cl,0.0069942230803565755
mp-864675,Yb3N2,0.0
mp-762277,LiFeP2HO8,0.07141274658653796
mp-1078268,Pr2BC,0.0
mp-683955,KTaPS6,0.0
mp-555366,LiHo(PO3)4,0.0
mp-504104,LiNiPO4F,0.0717740452343758
mp-758089,Li2Ti3O6,0.03501853727273385
mp-677014,K2ErTi(PO4)3,0.003001471907905007
mp-560016,NaNb2PO8,0.0
mp-610955,CsCrCl3,0.017338666444443263
mp-505546,GdMnB4,0.0
mp-772510,YTh4O10,0.03559204662500015
mp-761549,LiMnPO4,0.06974906928571299
mp-607409,Hf5CuPb3,0.0
mp-868379,Li4Mn3Cr2Cu3O16,0.06419182610862695
mp-795584,RbAl(SO10)2,0.8686330777604168
mp-984,BN,0.0005679299999989951
mp-677140,YAl6Si30(N15O)3,0.08391378568235375
mp-763314,LiCo2CuO6,0.0718141841875033
mp-27888,Zr3GeO8,0.003864140416666828
mp-755392,LiSnPO4,0.07339893880953863
mp-980662,YTmAl2,0.020761005312500025
mp-510341,Cs3Ge4Au,0.0
mp-560329,Ce2Zr2O7,0.0
mp-754370,Ba3GeO5,0.006698981944444959
mp-767736,Li12Cr3FeP4(CO7)4,0.06667443933894203
mp-862371,Sc2RuPt,0.0
mp-674968,Ag33(PbO3)14,0.001905854681647945
mp-1017229,Mg6BC,0.4227067333593753
mp-780260,TiGeO3,0.041306401999998237
mp-985588,FeCl,0.9247261700000003
mp-720586,CaH4NClO5,0.0
mp-600449,DyCuSb2,0.0
mp-1099331,CeMg6Bi,0.17114837375000036
mp-771632,Mn5Cr2O12,0.0998530750329074
mp-554764,Sb3Au3F22,0.0
mp-769917,Ho2Mn2O7,0.0
mvc-5771,Mg2VIrO6,0.1452023538750007
mvc-5921,Mg2SnWO6,0.13511320433333476
mp-19261,Na3MnPCO7,0.0
mp-35185,NbBi3O7,0.1291013918181818
mp-558273,Ca3SiO5,0.04984267851851687
mp-1032600,SrYMg6O8,0.26120025945312353
mp-1026782,LiMg14C,0.28161449828124985
mp-574438,ThRu2,0.040171009999999896
mvc-14182,ZnCuF4,0.08068635083333753
mp-989402,Sr6In2NF,0.0
mp-37722,KBH4,0.0
mp-18878,LiFeAs2O7,0.0
mp-764996,Li2V2OF6,0.0840055474242396
mp-570529,Eu2B4Rh5,0.0
mvc-14011,Mg3Sb2O7,0.17960796541666735
mp-31225,Pr2Mo2C3,0.0
mp-1025866,Mo2W(Se2S)2,0.03527569499999838
mp-1073864,MgSi,0.17401398888888808
mp-2938,Tm(FeSi)2,0.0
mp-771778,Tm2P4O13,0.010534044605263304
mp-18463,RbZnPO4,0.0
mp-1095659,YbAlB4,0.052232513611113696
mp-761616,LiMnPO5,0.02802409143228868
mp-680742,GdP5,0.0
mp-769869,FeSeO4,0.047933337482644056
mp-772473,Li2FeSiCO7,0.09352344598958418
mp-1080630,CeSe2,0.1509537985416678
mvc-11269,Mg(NiS2)4,0.11137012317307617
mp-762872,Li3Ti2Mn3O10,0.04703003854743493
mp-753437,La5Cu5O13,0.04354072369565287
mp-20130,Pu3Al,0.7774475337499993
mp-1079178,CeCoGe2,0.0
mp-1079397,HoZnSn2,0.006223086102940201
mp-24892,Co7(AsO6)2,0.0
mp-27949,Si2H6O,0.04304827958333224
mp-25418,LiTiPCO7,0.0244511606818012
mvc-12664,MgNiO2,0.26582611708333115
mp-784630,Ni2Mo,0.014439878888887312
mp-774106,Li3Fe2(SiO4)2,0.06190211216665632
mp-764500,Li8Fe(O2F)2,0.07141742133333118
mp-29812,Ba2CoCl6,0.03791057638888784
mp-1080175,Te4Mo3WSe4,0.030153146666667574
mp-565634,NaV(GeO3)2,0.0
mp-778224,La4CoO8,0.03954506495193755
mp-849672,Mn6OF11,0.03402410201389383
mp-21079,Tb(GeRu)2,0.0
mp-22377,ZrCoSb,0.6115769383333305
mp-771226,Li9(CoO4)2,0.06510106498905087
mp-16723,Y3Al2,0.005163250999999036
mp-975896,PrNdTl2,0.0013889174999999199
mp-1008798,ReN2,0.23043798809555585
mp-961704,NbTlPt,1.0573944799999992
mp-21563,SrAlBO4,0.06952749202381181
mp-1028528,TeMoWSe2S,0.07824009583333336
mvc-11615,Mg3V2(SiO4)3,0.11035816062501612
mp-19333,Fe2B2O5,0.0
mvc-5304,ZnMo2O5,0.4722612206249988
mp-744876,Sr8Nd2Fe5(MoO6)5,0.007284129099987879
mp-1031866,YMg6NbO8,0.3172738664453121
mp-1034875,Mg14TiNiO16,0.141177213984375
mp-1077231,CaClO,0.30399925314814696
mp-540192,Li2MnP2O7,0.024043570520833057
mvc-13850,Ca(WN)2,0.4827138469999976
mp-34763,NaAlB14,0.0
mp-585435,Ni3P3O11,0.04534319797794152
mp-763092,Li2Mn3F8,0.055175688461538634
mp-864788,NbInRu2,0.0
mp-1026404,Mg14NbSn,0.0711886620833333
mp-772437,V3Bi2(PO4)6,0.09005438485714468
mp-769171,SiGeO3,0.10606156674999934
mp-1099573,CuAgF3,0.003809704000000469
mp-541646,Cs3Ru2Cl9,0.0
mp-850875,Fe2OF3,0.07656552791667437
mp-977567,Hf2CuRe,0.0
mp-780545,Na3VO4,0.0
mp-733612,RbH3(SO4)2,0.0
mp-1036243,CaMg14CO16,0.27032959558593905
mp-1071423,VFeSb,0.2980198333333321
mp-865680,TiSiOs2,0.0
mp-1026420,Mg14GaSb,0.038848835624999856
mp-12082,Er(CrSi)2,0.10869469700000067
mp-758840,KB6P(H2O7)2,0.0
mp-558506,BH9(CO)3,0.1726556247656248
mp-571084,MnBr2,0.0055422524999997344
mp-1039876,Mg30SiBO32,0.13713766008137984
mp-1016654,Mg6MoW,0.28919444375000003
mp-865587,Y2CuRh,0.006242536874999871
mp-1022806,BaYMg6,0.17664355616477234
mp-1035052,RbLaMg14O16,0.2920322884375004
mp-705070,K4MoC5N6O,0.2118131295710768
mp-1073644,MgSi2,0.1808698084259284
mp-28034,Cu2P7,0.0
mp-12614,Ca2Cu,0.0
mp-865641,Y2NiRu,0.0
mp-11294,DyCd2,0.0
mp-777891,LiFeF4,0.07328150831019364
mp-556480,Ti3O5,0.010394228124983584
mp-11342,GaSe,0.0004048375000000881
mp-17714,Ho4(B2O5)3,0.03842823459999245
mp-9324,Ba3MnN3,0.0
mp-753273,LiCuF4,0.015493223749992957
mp-763442,LiP4WO12,0.04853103347221488
mp-645945,Na12SnGe8,0.0
mp-1095641,Tb5S7,0.0
mp-21087,UAs,0.13500552
mp-11463,LaHg2,0.0
mp-771757,Li4V3Co3(TeO8)2,0.057342833065470174
mp-661403,In2Cu2O5,0.05410436277777997
mp-1094054,Sr2FeCoO6,0.03237588361693167
mp-771516,Li4Ti3Cr5O16,0.032454726170628945
mp-862614,LiTm2Ru,0.0
mp-625723,MoH4O5,0.08056623812499986
mp-865067,Li2EuGe,0.020006136562500387
mvc-7764,Zn(CoO2)2,0.24211382812969795
mp-28473,CClF3,0.01450238059374964
mp-622195,CsSO3F,0.0
mp-975609,Li2TlPb,0.01173098000000028
mp-1028155,CaMg14Mn,0.09314060406250002
mp-19605,K3Na(WO4)2,0.0041390701785779535
mp-743541,MnPH5CO4,0.03188875843749539
mp-755820,NdO2,0.1656805077083332
mp-867871,SmMgZn2,0.0
mp-570216,Sm(AsPd)2,0.017478248666666474
mp-761646,Li2Cr2Si5O13,0.01670243731818033
mp-35482,Ti(FeO2)4,0.14160639557692178
mp-759356,AlH3NCl3,0.0
mp-1037903,CaMg30NbO32,0.0701937487109392
mp-767549,P4WO12,0.024506387352926318
mp-29196,AuCN,0.24988162337333275
mp-571209,Y3(B3Os4)2,0.009045549999999736
mp-1073166,Mg2Si3,0.2349977541111099
mp-631535,BeW2Cl,1.6122541064062492
mp-771469,Li2FeAsCO7,0.024417356822934444
mp-18800,Cr2SiO4,0.03132141071428407
mp-1029368,Mg2VN3,0.0
mp-654199,Ta8NiSe8,0.0
mp-1027663,Te4Mo3WSe4,0.04973158250000065
mp-1016322,SrMg6Cd,0.1079258190086203
mp-7913,BeSiN2,0.0
mp-11084,EuCdAu,0.0
mp-761444,Li2CrSiO5,0.08758170878085991
mp-776801,Li6Nb3V3O16,0.10053587415177301
mp-745200,Fe2P2H4NO8,0.08359709720823982
mp-680333,Ge4Se9,0.005892780108172957
mp-755658,CePrO2,0.04235326083333391
mp-1022266,NaMg6Fe,0.3136374118749998
mp-769078,Na2Li3Ti3Al(PO4)6,0.06544829534823915
mp-1094849,MgGa,0.02386688437499984
mp-768310,LaBiO3,0.03472463675001336
mp-669471,HgS4(NCl)3,0.07869926912364099
mp-32386,Ni3(PO4)4,0.19825828625001485
mp-4124,CaCN2,0.0
mp-542782,H8C3(NO)3,0.08652134422794068
mp-558236,BaNd2CoS5,0.07790842620370952
mp-1094424,Y2Mg,0.07280915583333325
mp-22428,SrCeO3,0.008432650999994351
mp-777016,LiFeF3,0.07503622785713926
mp-1096995,HfSO,0.06046036208333305
mp-997181,VCuO2,0.11176103000000026
mp-28534,CaInBr3,0.0
mp-683919,C,0.3473403396428569
mp-10675,Ti3AlN,0.01714570066665999
mvc-14983,ZnCu4(SnSe4)2,0.022431104760415987
mp-28318,HgTeO3,0.014133736874999412
mp-1095585,Er2Ga8Fe,0.013118077045455756
mvc-11959,Mg3Cr2(SiO4)3,0.0595917541250035
mp-669358,CdI2,0.001682608404040442
mp-989549,Cs2PbClF6,0.0
mp-763956,Li3Mn(PO4)2,0.02909255339286076
mp-30207,La3GaBr3,0.0
mp-1099232,Mg6FeNiO8,0.09729345203125027
mp-762055,Li4Cr3Co3(SbO8)2,0.02691469196428553
mp-772958,Er2P4O13,0.02152280131579154
mp-504790,LiYSn,0.0
mp-11247,Li3Au,0.0
mp-560986,AsSe2S(NF3)2,0.08087175129522793
mp-680781,Rb3Tm(SO4)3,0.19047677496710413
mp-17833,Ba3GeO,0.0
mp-764589,LiFe2(BO3)2,0.0529681881250248
mvc-4097,Al2Si3(SnO4)3,0.17383074862499992
mp-1098629,Mg30AlCoO32,0.031781608632813096
mp-1009829,Be2Si,0.2392079900000006
mp-1094815,CeMg2,0.05873541555555618
mp-14963,Pr3NbO7,0.002968138181817181
mp-1032543,HfMg6ZnO8,0.3567113242187503
mp-559390,CaAl2O4,0.008743786761900907
mp-1017508,LuTlTe2,0.0
mp-754936,DyAlO3,0.040796638400001584
mp-767200,Li4Fe2Co3Te3O16,0.08328486955358018
mp-4511,La2SO2,0.0
mvc-6986,Mg(WO2)2,0.4839831128571408
mp-3519,ZrSO,0.0
mp-547956,MnV2O6,0.015921090000004412
mp-769913,Mn2Co3Te3O16,0.06490335124999548
mp-853265,V4O5F7,0.02428198687501748
mp-561310,NaLiCO3,0.00946161981481275
mp-640818,Mo9O26,0.03731125346428677
mp-1033422,BaMg6CO8,0.8713707685156269
mp-630760,KHgC3(SN)3,0.14383622879870472
mp-1022485,Mg6FeCo,0.3222935385763885
mp-775532,LiNbCoO4,0.061064556428570775
mp-2027,HfCo,0.003046825000000197
mp-769847,Li(CoO2)2,0.034685095714283236
mp-743926,FeH4(CO3)2,0.0
mp-14172,SrSi2,0.0030152558333336192
mp-8986,Ba2GdC2(O2F)3,0.0
mp-1100615,Li9Mn2Co5O16,0.12978233187496355
mp-569152,SnCl2,0.0
mp-22965,BiTeI,0.0
mp-558154,Ag3PO4,1.223136071249999
mp-865364,DyTaRu2,0.0
mp-8140,AsPO4,0.0
mp-1038308,Mg30AlCuO32,0.024427124101563003
mp-861953,AlFeRh2,0.0
mp-16691,SrLi2Ti6O14,0.0
mp-776789,Li5Mn6(BO3)6,0.03525971283331408
mp-505429,Th(Re2Si)2,0.0
mp-559534,Ba5Al2In2IrClO13,0.0
mp-27360,ReBiO4,0.0
mp-1097730,Nd(CuSi)2,0.0
mvc-2124,AlCo4(CuO4)3,0.21027292712500328
mp-772356,Li4V3Cr3(WO8)2,0.004915629999997506
mp-762467,Li15Cr2O12,0.07183859189655006
mp-978790,Sm3Ag,0.16092802625000058
mp-761797,Li6Mn15O32,0.04181073007075575
mp-619501,U2Te3,0.01449787300000249
mp-557456,Li4Al3Ge3IO12,0.0
mvc-10435,V2Zn(CuO4)2,0.03146706538462496
mp-704542,GeW2C10(BrO5)2,0.488210758750002
mvc-893,Sr2AlCu2MoO7,0.3300353550961619
mp-11971,HoSnRh,0.0
mp-555976,Na2TiSiO5,0.002660532499954904
mp-12736,TbB2Rh2C,0.010846527361107585
mp-1093726,BiPd2Au,1.7527521061111102
mp-505222,CdInBr3,0.008400606999999559
mvc-12580,MgMn4O8,0.11600764456729795
mp-672244,GdAl4Ge2Au,0.1546821249999999
mp-770513,Li8Mn2O7,0.10203646029412904
mp-1027535,TeMoWSeS2,0.07093443250000052
mp-15651,NiSe,0.0
mp-1078035,Sm2Cr2C3,0.0
mp-559644,K2Cu(PS3)3,0.0
mp-32477,VP2O7,0.02802646224999528
mp-1018700,EuO2,0.09544469979166692
mp-865008,CeFeO3,0.3345874229999985
mp-758413,Na2CdO2,0.016038180999999874
mp-3107,Ga3PO7,0.016344412727273827
mp-30821,LiAl2Rh,0.0
mp-978554,SmRe3,0.461708663125
mp-25170,KVP2O7,0.0
mp-1028694,Te4MoW3(SeS)2,0.0681368197916683
mp-777141,Li6V2C4SO16,0.06693425310727275
mp-758554,Li2AgF5,0.08645397312499759
mp-16627,TmAl7Au3,0.0
mp-849967,Mn4O7F,0.05920410072917815
mp-37153,AgAsF6,0.0
mp-1028434,TeMoWSe3,0.04294700833333387
mp-1077228,PrInPt4,0.0
mp-777567,LiFeF4,0.10132611768519427
mp-569273,Mg44Ir7,0.0
mp-757331,Gd3Y5O12,0.0011934603749992336
mp-851023,Li3Mn4(BO3)4,0.035841834166646436
mp-8338,TaF3,0.4429982050000145
mp-608109,Co3(PO4)2,0.0038515311538454
mp-19809,MnCoSi,0.004842979583333572
mp-22035,KFe2S3,0.0
mp-754823,ErTlO2,0.09836478796874992
mp-761448,Mn6Cr9O20,0.00805614842858482
mp-560818,Sr5B3O9F,0.0026150547222192344
mp-3123,PPdSe,0.0
mp-686836,MgTiNb2(PbO3)4,0.0004889554375013816
mp-1096930,Cu(AgO)2,0.2231021020000039
mp-608254,SmClF,0.2520782524999996
mp-754723,Li2Ti3BiO8,0.1157358173214229
mp-761481,Li2FePO5,0.06762501124999433
mp-21409,Zn(InS2)2,0.07327924839285771
mp-1080170,MoW(SeS)2,0.014504653333333728
mp-764541,Li5Fe8(BO3)8,0.04354018470833587
mp-695545,TaTi9Al3Zn23O48,0.05300403199404702
mp-10198,Mn3PdN,0.022442147599999632
mp-1096333,BaNa2Ca,1.0334751193749998
mp-568846,TaBr5,0.0
mp-566093,MnSO3,0.042124091353521464
mp-774658,LiSnPO4,0.0813903982143005
mp-1098846,Mg30VCuO32,0.03149333281249955
mp-28503,Al10Si2O19,0.061205021290321675
mp-18794,Sm2TiMnO6,0.01806984774999876
mp-672368,UVN2,0.0
mp-12119,Cs(FeSb)2,0.16262256479999948
mvc-13314,Ba2Mn2TlO7,0.2841133454513871
mp-23674,NaH4BrO2,0.02135274812500043
mp-11719,K4ZnP2,0.0
mp-8938,Si2Mo,0.028619794444443517
mp-4283,LaSi2Pt,0.0
mp-985442,AgAsSe,0.012885474814814836
mp-1025365,Sc(VGa2)2,0.0
mp-631452,NbCrW,1.0314421799999989
mvc-16315,Sr2YCoCu2O7,0.007407560066886809
mp-23709,Mg(AlH4)2,0.02763746409090917
mp-13444,LiSn,0.003774138333334065
mp-862831,PaTiTc2,0.0
mp-1079632,Ba2CeNbO6,0.008517065499999532
mp-561558,Ba2CuWO6,0.04375006925000236
mvc-12309,Y2(Mo2O7)3,0.3416059967672549