mpid,formula,e_hull
mp-601328,KCrF3,0.0807617140000012
mp-761555,Li3Fe(PO4)2,0.08623188785714397
mp-1097615,Ba2MgHg,1.4158350740625
mp-8176,RbTlO2,0.0
mp-540742,NdTl(PO3)4,0.0
mp-979917,DyYRh2,0.00917759000000018
mp-978284,Na2P3HO9,0.0
mp-767635,Li3Cr(PO4)2,0.07794031035699422
mp-570528,Li2GaIr,0.21942041249999988
mp-580503,V2Cd6Se5O21,0.009912580147020122
mp-971864,U2Ga2O5,0.679853894444447
mp-849981,Co3(OF2)2,0.09048034583333207
mp-672690,U2S3,0.17811340099999914
mp-1097805,K2W2O5,0.3235146544444447
mp-1093848,SrLaAu2,1.82203272625
mp-29419,Hf(Te2Cl3)2,0.0
mp-1079049,Ir(NCl)4,1.0827807029809875
mp-762162,MnVHPbO5,0.0
mp-865955,CaNdHg2,0.0
mp-1791,Al5Rh2,0.0
mp-850249,Fe4S5,0.05993109999999913
mp-1033178,Mg6BiCO8,0.6925431456249997
mp-774239,Li(CoO2)2,0.12958747035714244
mp-699496,K2Cd3H10S4O21,0.41499813956250176
mp-31649,LiCrP2O7,0.01836046454545581
mp-29633,LiGePd2,0.0
mp-567817,HfGeTe4,0.0
mp-777433,V6O7F5,0.028360951111126912
mp-1018160,PmN,0.0
mp-978991,TmMg5,0.04312629633333343
mp-721171,CsMgH12(ClO2)3,0.0
mp-773716,Li5Mn5(PO4)6,0.06056640006251258
mp-4959,Ca(GaO2)2,0.049483305773811104
mp-645340,Nd(BO2)3,0.0
mp-1096646,Li2YGa,2.0909555087500005
mp-775197,Mn3Nb(PO4)4,0.05951686864584184
mp-541143,Ni3(AsO4)2,0.006890096730771234
mp-558183,MoS2N2Cl5,0.07383073123233252
mp-774079,Li5V3P8O29,0.035213648574058176
mvc-12078,CaNiP2O7,0.0056536752272711155
mp-781897,Gd3NbO7,0.02541475181818776
mp-699041,Ca5Nd5Mn9CrO30,0.004667067116665535
mp-675618,Sr2RuO6,0.6709298818187861
mp-779989,Gd2P4O13,0.02620933947369864
mp-13546,Y2Ge2O7,0.0
mp-655078,K2ZnH12(SO7)2,0.5506073912903231
mp-566016,Cr2NiO4,0.20187614499999806
mp-1079091,PrCu,0.0033705075000005635
mvc-13163,CaMn4(SiO3)5,0.0
mp-540000,CoO2,0.07271632583333343
mp-649833,Tb15(Ni4P3)7,0.0
mp-867811,TaMnRu2,0.0
mp-1032216,NaMg6CoO8,0.11772022062499145
mp-677649,SrLa9MgGa9O29,0.07955301123087377
mp-13263,Ce2Mo2C3,0.0
mp-754116,BaY2Br8,0.10143206670454764
mp-10059,ZrCo3B2,0.009489852777772256
mp-673848,Ce2Dy2O7,0.06730497090908827
mp-1021450,KMg6C,0.3853931442187499
mp-770906,Li3Mn(BO3)2,0.02682067661459886
mp-600186,Cs2MnBr4,0.0
mp-32062,Li3Mo3(PO4)4,0.014055040544858066
mp-4563,Ti3TlC,0.009779502666666495
mp-679936,Er7C2I12N,0.0
mp-778241,Li2V3F8,0.08695214192307699
mp-1094454,YMg2,0.05386955250000014
mp-561112,Zn2SeCl2O3,0.00022527796875149164
mvc-5756,CaWO3,0.22595050149999985
mp-775,Er5Si4,0.02248826027777717
mp-743838,Ba4La8Mn11SnO36,0.0256694947499998
mp-669648,Ho6Mn23,0.017483454640803586
mp-1064013,VGaCo2,0.000753529999999003
mp-1074788,Mg7Si4,0.22214677090909168
mp-568156,Y4CdRu,0.0
mvc-5000,CrWO6,0.23072102859374866
mp-1018127,TbSb2,0.5590442616666662
mp-773678,Na2LiFePCO7,0.02306565576922992
mp-570561,Dy2MgSi2,0.0
mp-982930,HfTl3,0.2557153725000001
mp-31405,Mg4AlSi6,0.1772666064646491
mp-675219,Ba9(LaS6)2,0.03409917195651602
mp-771347,Li11Ti4Fe9O32,0.05679503024553512
mp-774404,LiVP3HO10,0.07014750355468458
mp-557379,P2H6C4N2Cl2O,0.30796641511632483
mp-4524,ZnGeP2,0.0
mp-867304,BeVFe2,0.0
mp-770184,Li3Co(CuO2)4,0.04311487874999642
mp-761814,LiCoPO4,0.08110427125000186
mp-504944,NaP(HO2)2,0.032622440937499775
mvc-10416,BaCaTiF7,0.046778789250002895
mp-771633,Li3Mn(PO4)2,0.020664403392852467
mp-1016623,Mg6CrSb,0.17964600812499976
mvc-660,Sn(WO4)2,0.09728049272727368
mp-754110,SmAgO2,0.0
mp-861654,HoInPd2,0.0
mp-5048,LiGaTe2,0.0
mp-640312,K4In3Ge20,0.0
mp-758934,Dy3Co29(Si2B5)2,0.0
mvc-16053,Sr3MgCr2S2O5,0.18189331942307785
mp-8491,LiInP2O7,0.0
mp-777069,LiMn2PO5,0.08048073750000029
mp-961651,ZrFeSe,0.27049586333333675
mp-763030,LiMnF3,0.07362460974999774
mp-1096504,Sr2LiPd,1.2531266066666673
mp-652141,CsFe2P5O16,0.0
mp-974523,NdErTl2,0.004709782499999982
mp-1028019,Mg14ZnC,0.17380414489374996
mp-557321,As4S3,0.006770522500000098
mp-551561,K4CO4,0.1886783627777744
mp-864637,NdAl,0.0
mp-18100,Na6Ge2Se7,0.0
mvc-6617,Zn(AgO2)2,0.13540609994047606
mp-31812,Li4Fe5(P3O11)2,0.029386350405411925
mp-1080057,CeCuSi2,0.03104631874999964
mp-759278,Li2Cu(PO3)4,0.09292822201755337
mp-774708,ZnH12C3S4(N3O2)2,0.041133413852027616
mvc-2768,Ba2Ca2Tl2Sn3O10,0.2669465784210514
mp-1032824,Mg6FeSnO8,0.20568725625000006
mp-972520,SmSnRh2,0.00890297114583305
mp-7814,Ta2CS2,0.0
mp-622502,NaZr2MnF11,0.0
mvc-8347,MgNi(GeO3)2,0.0021129447499985687
mp-779813,Fe5O3F7,0.17837546166666485
mp-772099,Cd(CuO2)2,0.0
mp-21365,InSbS3,0.0
mp-560271,AlCuAsO5,0.029447127812499474
mp-25118,VClO,0.0
mp-705747,Ti9Fe11O30,0.0628925600461745
mvc-16251,Al2CoO4,0.012714966428570841
mp-753472,NbAlO4,0.038598989583338295
mp-624221,Ge3Rh5,0.010787620000000327
mp-554189,KV3P4O17,0.005834584000023568
mp-1030721,Te3Mo2Se,0.022454927499999226
mp-776730,Li2FeF5,0.08835597027778075
mp-1095709,Tc2GeW,3.62121636375
mp-26550,Nb(PO3)4,0.02168836083473113
mvc-1240,ZnFeP2O7,0.009667829602268084
mp-774269,LiFePO4,0.07628635440476295
mp-4938,ScCo3B2,0.0
mp-1019269,Sr2H3I,0.008038780000001909
mvc-2222,Mo(PO3)4,0.02904598999997265
mp-1097640,SiTc2As,2.9623610947916665
mp-697018,SrZnP2(HO4)2,0.8504790333928582
mp-569129,TlCuPSe3,0.0
mp-765461,Li4Mn5Co(PO4)6,0.06986333615627237
mvc-16777,Li(CrS2)2,0.020179210793650704
mvc-7667,BaYCrCuO5,0.062066067256956174
mp-534953,Ca4Ti3AlSi4O19F,0.009852694121093464
mp-541504,U4Tc7Ge6,0.0
mp-762399,Li2Cr(SiO3)2,0.08799849681818905
mvc-10697,ZnFe4O9,0.3349858083928572
mp-2498,PrOs2,0.029307067500001338
mp-6342,LiCa3RuO6,0.0
mp-763347,Li2VO2F,0.06883721666666442
mp-542754,Tb2Si5Os3,0.0
mp-1039463,MgCd,0.04541822666666695
mp-2700,CaSi2,0.0015728049999985672
mp-650929,Na2Ti9O19,0.03345344458333521
mp-7349,Ba(BRh)2,0.0
mp-2896,Pr(GeRh)2,0.0
mp-24873,CoSeO3,0.0
mp-1067236,CdPt3,0.0
mp-1039936,NaCeMg30O32,0.04825068926846488
mvc-677,Ba2YBi3O8,0.20705734812499976
mp-778557,V2O3F,0.002830078000004121
mvc-4488,Ti2Zn3(Si2O7)2,0.14865039775362465
mp-645182,Sm2NiSn4,0.0
mp-531472,Li2UBr6,0.000758992407409842
mp-1073745,MgSi,0.2532727891666666
mp-4855,Li2SeO4,0.0
mvc-12126,VO2,0.15945087333333066
mp-12815,Na2LiAu3,0.0
mp-769819,La6WO12,0.0
mp-771382,LiVBO4,0.09061439523808802
mp-774390,Mn3SbO8,0.09552590746527924
mp-787,U3P4,0.0
mp-1098359,Mg30TiBO32,0.12646566581640786
mp-1074668,Mg2Si,0.2240787245000017
mp-1094551,Mg3Sb,0.08850075000000057
mp-1028249,BaMg14Al,0.1265955553125
mp-771991,Li6NiO4,0.0221018340909076
mp-4238,MnFeAs,0.0
mp-1095951,BaInHg2,1.1648071945833325
mp-32689,Pr2Se3,0.0
mp-1093585,LiCu2Ni,1.9463805116666664
mp-978493,SiSnO3,0.4866339869999994
mp-510458,HCN,0.08920284572111026
mp-540211,Cr2(PO4)3,0.050226612757354516
mp-1079567,K2RbPt,0.15241865624999962
mp-1099927,Eu2Ag2O5,0.13782127277777698
mp-23550,KBrF4,0.0
mp-974799,Rb3Sr,0.13297529750000006
mp-773537,Li4Ti3Cr3(WO8)2,0.04162617084523923
mp-760255,Li3CuF6,0.0
mp-774719,Ba4Nb3O12,0.05187435893091852
mvc-12096,Ca(NiO2)2,0.07497134000000027
mp-7483,KHgF3,0.0
mp-553916,ZnS,0.0004473310416663878
mp-560827,MgH8C4(N3O2)2,0.14027655787439566
mp-774091,MnSb3(PO4)4,0.09704654052084738
mp-961705,TiPtPb,0.5228712950000007
mp-690799,Zr(TiH2)2,0.0
mp-777277,Li2Cr3CuO8,0.05942577434523155
mp-743133,NiH12(BrO7)2,0.004062811307470327
mp-769381,Ca3Ta2O8,0.04984100434064587
mp-636403,PuNi3,0.0
mp-646670,Ba2Co4ClO7,0.04955530142854592
mp-28201,Sr4(PPd)5,0.0
mp-768695,Ho2Ti2O7,0.0
mp-1020612,Sr2Si(S2O7)4,0.0
mp-559605,SiO2,0.2332920944444439
mvc-6059,Zn(CuO2)2,0.11570249285714328
mp-510549,K3B12H12Br,0.008711548214278329
mp-5072,Rb2HgO2,0.0
mp-758520,LiCuPO4,0.0825597828571567
mp-756448,LaMgI5,0.016965625000001427
mp-542239,Cs5Hg19,0.0
mp-7998,Li2Ge2O5,1.4979074074439325e-05
mp-1096443,Mg2HgPt,1.56754412125
mp-542106,SbPd2,0.0
mp-778687,LiMnF4,0.016306076249990475
mp-1001839,VN,0.3295112150000001
mp-28302,K4CdP2,0.0
mp-705412,CaLaMnMoO6,0.0
mp-1026737,RbMg14C,0.33492185175781275
mp-631547,In2ReB,1.6295503574999994
mp-780837,Na2Cr7O14,0.09351574277777884
mp-770569,ZnCrO4,0.0
mp-771583,LiMn2O4,0.022529284783165515
mp-1063517,YbPd2,0.21570840999999866
mp-1096442,Li2ZnGa,1.3305937437499995
mp-853216,Ti7Cr12O48,0.07844598052239071
mp-1038446,HfMg30GaO32,0.10849545566406338
mp-762395,Li2Cr(Si2O5)2,0.06243507885292665
mp-764313,KLiMnP3HO10,0.04444786441176874
mvc-5127,VZn(SiO3)2,0.055990318500000136
mp-1072537,CeSiNi4,0.0
mp-20356,Ce2SbO2,0.0
mp-721896,H4CSN2,0.006225615937499818
mp-12732,Dy3(CuSi)4,0.0
mp-865677,ThSnPd2,0.0
mp-777661,Li5Mn8(BO3)8,0.060224004907388114
mp-625571,H2W2O7,0.05596466977272474
mp-8684,Cs2VAgS4,0.0
mp-866536,NaEu2Sn,0.08124045062499974
mp-569278,SiPd2,0.4766006477777784
mp-979973,Sm3Tm,0.02254592437499969
mp-1008998,LaS,0.3201179500000002
mp-1035212,LiHfMg14O15,0.11262890548387094
mp-781016,Li14Fe4O13,0.10044707975806233
mvc-5045,VZn2WO6,0.07454389325000221
mp-11310,CdNi,0.3948448637499995
mp-721287,Na3AsH14SO10,0.03817586153735597
mp-34765,Tl4CuTe3,0.1929802290696037
mp-585476,Cs7Np3(Cl2O)6,0.0
mp-11595,Yb5Ge3,0.07517160614583318
mp-8003,SiCN,2.220585104513888
mp-767529,Na2TbPCO7,0.026760268333334558
mp-771890,LiSnAsCO7,0.06338232159091195
mp-626421,Yb(HO)3,0.10180528544642886
mp-778042,Li8MgCo13O28,0.1029056682083338
mp-765876,MnCo3O8,0.06354123791667288
mp-720869,H12C4N2O9,0.0597154510185165
mp-11038,Zr6Al2Fe,0.0027021551111108266
mp-1030281,Te6Mo3WS2,0.09762612833333327
mvc-7676,BaYCuWO5,0.4003017163888751
mp-862745,Sr2LiPt,0.11994302553571412
mp-1023193,CaMg6Nb,0.1617399256250005
mp-557606,SbAs3(Se2F3)2,0.06363247902901836
mp-771187,Li6Fe3Ni(PO4)6,0.05482013434373734
mp-774415,Li2Cr3FeO8,0.06253546768254292
mp-1076928,CsEuS2,0.053392070000000125
mp-558056,AlPO4,0.010297802500003785
mp-32009,Mn2BO4,0.0
mp-5046,BeSO4,0.0
mp-622576,Ba2Sm(CuO2)3,0.0
mp-995193,Si3H,0.02958790515624976
mp-1096971,GaAgO2,8.10537499997821e-05
mp-567249,GdMg2Ni9,0.0
mp-1079689,Tl3Pt,0.19921271500000026
mp-531574,Dy11S16,0.025612610277771168
mp-777614,Li32Ti3Cr13O48,0.017289368645848846
mp-707349,RbB6H8O7,0.19757896571625105
mp-862815,LiScAu2,0.0
mp-778085,Na5Bi2P(CO4)4,0.07634964419642909
mvc-2126,Mg2CuN2,0.1543037951826669
mp-704995,LiMnGaF6,0.00016006037037019638
mp-1016279,Mg7Zn,0.030604940725000418
mp-624463,Fe2WC10(SeO5)2,0.5734741457333357
mp-754019,Na4NpO5,0.0
mp-773204,Li4Cr5Fe3O16,0.0664443724206345
mp-694318,In2(WO4)3,0.05486385639705915
mp-764119,Li3V3P8O29,0.04808943049417636
mp-1069604,CaSi3Pt,0.0
mp-1094245,MgSn5,0.07566726458333317
mp-1097200,TiGaAu2,1.8023584519791664
mvc-15909,AlFeO3,0.4955526155000003
mp-568949,TlBr,0.022587254999999917
mp-652788,Na2AlCoF7,0.0036610002272698962
mp-1064731,Ti2MnGa,0.10724769749999916
mvc-4432,Zn3Si4(AgO7)2,0.09952023400362188
mp-867965,Sm3MnAlS7,0.0
mp-16594,K3TbSi2O7,0.0
mp-1017446,HfCdO3,0.280297914500002
mp-631576,MoPt2Br,0.9222548722916658
mp-511,PrGe,0.0
mp-864937,Mg3Sc,0.0
mp-777630,Li2CrP2O7,0.04837875249997303
mp-1247,Sb2Ir,0.0
mp-762,PtS2,0.0
mp-762975,Li4V(CO3)4,0.06266284357144958
mp-1037,PrPt5,0.0
mvc-11658,Mg(FeO2)4,0.25165193798077024
mp-762566,Li2FeSiO4,0.011134715937500594
mp-27694,H3ClO5,0.0
mp-9981,Mn2N,0.0
mp-581955,CsSi2SbO7,0.0
mp-1017988,SrCaO2,0.04889010999999943
mp-1094169,LaMg3,0.04972875624999995
mp-31548,LiCoP2O7,0.037820120454545865
mp-780415,NaEuO2,0.0
mp-779085,LiMn2F5,0.029042143333332326
mp-571608,Yb3Ag2,0.0
mp-1016342,SrMg6Sb,0.20962024196428647
mp-555126,CoCuO2,0.0
mp-685090,Ga2O3,0.21848155000000247
mp-988945,AlAs,0.14978647062500006
mp-1061272,NbCo,0.17517192928571568
mp-1025729,Te4Mo(WSe)2,0.061775425833333834
mvc-3779,AlMoO3,0.4517376839166687
mp-763129,Mn2Fe3Co(PO4)6,0.059589759097227635
mp-541157,EuCd(BO2)5,0.0053555588970670715
mp-762524,Li4Fe7(PO4)6,0.061713551463406624
mp-1098967,HfMg30VO32,0.0947037705078122
mp-542172,YbMgGe,0.0
mp-1026813,BaCeMg14,0.12781070124999985
mp-775170,Li2AlCr2SbO8,0.009474191845243674
mp-189,SiRu,8.824375000049399e-05
mp-770692,Ga2WO6,0.04218394805554927
mp-771375,Li2FePCO7,0.01982426390624337
mp-572543,CsPr(PO3)4,0.007212552777777327
mp-24799,Cs3B12H12Cl,0.0015994046428575714
mp-759553,As3H12C4S5N,0.059873591314998365
mp-765833,Li6Fe5NiO12,0.036617227812499216
mp-1029763,ZnSiN2,0.4613572056250002
mp-567398,Sr3MgGeN4,0.0
mp-6189,CaCu(Si2O5)2,0.029421586093750562
mp-553912,NaZr2(AsO4)3,0.0
mp-864606,AcCuO3,0.0
mp-972733,Si3B,0.9233080139583336
mp-1094770,MgZr,0.10212376750000016
mp-5792,BaCuSn2,0.0
mp-1096215,Sc2CoPt,2.670925835
mp-866622,Ca3Sn4S11,0.1949989292361085
mp-767903,Li3VPCO7,0.08769723968749688
mp-505525,Nb4Zn2C,0.06978998321428698
mvc-8720,MgTaBiO5,0.05960283984375181
mp-765097,W2OF8,0.03984196401515217
mp-770975,Li4Cr5FeO12,0.10075677716161467
mvc-945,BaZn(NiO2)4,0.24787319142856834
mp-773016,Lu2P4O13,0.06077221388157916
mp-771112,Li2Mn3NiO8,0.0
mp-1027510,MoW(SeS)2,0.04822840000000017
mp-685352,Ca2NF,0.002340510208331814
mp-1294,YCo2,0.0
mp-735984,Na3Ca2Fe5(SiO3)10,0.03152862310000604
mp-20906,HoCoC,0.0
mp-1097323,ZrZnCo2,2.6160299959848503
mp-20943,TePb,0.2179267600000001
mp-12996,LaMg2Pd,0.0
mp-565633,CaMnB2O5,0.0016865690277896304
mp-771779,Na5Co2P(CO4)4,0.036549873017863284
mp-21527,Na2ScCuF7,0.0122796937878773
mvc-10057,MgCr2(PO4)2,0.04787620942317794
mp-774715,Ba4LiNb3O12,0.0011815513749997564
mp-1095827,ReSi2Tc,3.544257184375
mp-11775,RbUO3,0.0
mp-555896,Pr9(SbO)5,0.0
mp-763710,Li3Mn4O8,0.032829083604168474
mp-1077266,KLiS,0.049610949999995935
mp-569517,C,0.14393419549999995
mp-541851,Ce2(Ni7B2)3,0.004203607978052304
mp-765169,Li5V3P8O29,0.038082021462948035
mp-766759,Li2Fe2P2O9,0.0947711706666956
mp-706258,Sr2La3Ti2Cr3O15,0.007919705400023958
mp-1027395,Te2Mo(WS2)3,0.09959994500000137
mp-20711,Fe3Ge,0.0
mp-557958,Cs2KNiF6,0.002968712562497977
mp-1096195,Sc2TlV,2.5927257662500005
mvc-6068,Zn(CoO2)2,0.08980148312969938
mp-694894,LiMn12O24,0.03389709726352663
mp-1077978,Ti3Se4,0.04868227214285792
mp-1093959,In2PdPt,1.653241504125
mp-778912,Gd2(WO4)3,0.04125979323530515
mp-974568,Re3Bi,0.9916885675000008
mp-8633,Cr,0.392787160000001
mp-574571,Rb3YCl6,0.0
mvc-10532,MgV3P3O13,0.05229894452083883
mp-865342,Zn3Rh,0.0
mp-30025,DyBr2,0.1903206184259263
mp-29863,AsCl3O,0.0
mp-8717,Rb2MnSe2,0.0
mp-761295,MnCd6O8,0.007781602666668164
mp-560086,Nd4(GeS4)3,5.88570723678572e-05
mp-27209,KTlF4,0.0
mp-861724,Ac2AgIr,0.0
mp-865095,NaGaH8(NF3)2,0.008318860055557488
mp-12717,U3Sn13Rh4,0.03994269399999961
mp-1033419,BaMg6CdO8,0.34845273218750084
mp-1029444,KCoN,0.02893115805556068
mp-568661,Cd(InSe2)2,0.002773897142856807
mp-581951,Zn53Ni16,0.0
mp-636105,MnGa,0.03823933769230781
mp-29408,AlSeBr7,0.0
mp-29254,PrIO,0.0
mvc-6404,Mn2ZnO4,0.14186979428572233
mvc-10313,BaMgCuF7,0.0
mp-775328,Li2TiNi3O8,0.029472479761905927
mp-282,TiF2,0.2598511725925929
mp-12867,SrSnO3,0.011400255999999942
mp-626701,Mn(HO)2,0.017437322500001073
mp-571074,Y5Mg16Cu5,0.00034612159340241533
mp-761630,Li3Cr2(PO4)3,0.09415532062486688
mp-505769,Eu(CuSb)2,0.0
mp-1075131,Mg3Si4,0.2801412535714283
mp-542566,Pr3Sb5Pd6,0.0
mp-765380,LiV5F11,0.07693121514706203
mp-554566,BaLiCoF6,0.0
mp-780511,Mn12O5F19,0.0669633804513996
mp-867914,LaMgAg2,0.0
mp-770231,Li4Cr3NiO8,0.015692819062500973
mp-645938,Li5VP2O9,0.06774136737745008
mp-866085,Tm2IrRh,0.0
mp-769239,CeReO4,0.11006296361110834
mp-703370,Ca13Si10H12(O17F5)2,0.017346000189873756
mp-862257,Sc2ZnAu,0.0
mp-542514,Ho2Te4O11,0.0
mp-32334,NiP2O7,0.16105363762501312
mp-22812,In2Ir,0.0
mp-18701,Ba3YRu2O9,0.0
mp-25748,FeNi2BO5,0.0
mp-772367,K2WO4,0.0128459921428572
mp-976341,Nd2ZnAg,0.012553652499999846
mp-974061,KSiO3,0.4677612343749953
mp-558797,VF5,0.0004202185416666282
mp-1080141,Cs2Ni3S4,0.004214433888888536
mp-1028576,Te8MoW3,0.02014647104166567
mp-5678,ErB2Rh3,0.008415808166668981
mp-761330,Rb(WO3)2,0.03266644944444863
mp-1501,Al3Pt5,0.0
mp-1077392,TmCuGe,0.0
mp-20405,V2Ga5,0.0
mp-1080105,CeAsRuO,0.0
mvc-8847,TaBiO5,0.2260050148214283
mp-1023272,Mg6AlSb,0.10039002918269267
mp-505707,Tb2Mo4O15,0.0
mp-1096985,GaCuS2,0.17577536624999368
mp-1017530,VH,0.2942666108333336
mp-11440,HfGa2,0.0
mp-1076665,KNa7V7CrO24,0.16925322262499964
mp-763567,LiV(CO3)2,0.07717787400001264
mp-1097429,CaSnPd2,1.9334699877083328
mp-30752,La2Mg17,0.0
mp-27442,RbCrI3,0.01163931999999823
mp-762992,LiMnF3,0.059242596999999016
mp-6101,Ba3Nb6(Si2O13)2,0.0
mp-782005,Li6TeO6,0.05692380230769877
mp-917532,RbFeSe2,0.0
mp-1067482,NiHO2,0.02563240901041564
mp-772301,LiFePO4,0.09107698142857057
mp-34688,TiO2,0.007828999166680006
mp-861903,LiBiRh2,0.0
mp-627043,Ba(HO)2,0.04817456599999925
mp-755263,CrS2,0.0
mp-1028595,Te6MoW3Se2,0.05489676541666634
mp-984714,AgAsS,0.008049293333333374
mp-638632,ErCoO3,0.015764842500008314
mp-555587,K2SmP2S7,0.0
mp-1016835,CaRuO3,0.16141848749999355
mp-305,TiFe,0.0
mp-7541,SnP3,0.005335552321428239
mp-1076820,MgCoO3,0.5377703818750055
mp-542112,CaZrO3,0.1922258345000092
mp-709885,Rb4LiH3(SO4)4,0.02163383553570864
mp-1039470,Ce3Mg,0.14460095583333302
mp-557134,SiO2,0.08601984416666753
mp-37550,Mg2Ta3N5,0.08608593783333872
mp-566404,BaMo4(PO8)2,0.07637038745341583
mp-723406,LaP3H3O10,0.6211558177871144
mp-11558,Sc5Re24,0.0
mp-1065288,GdInAu2,0.009721846944445112
mp-29289,BaPt2S3,0.0031058643055512647
mp-558460,NaAg(NO2)2,0.09093703813499944
mvc-388,Ag2O3,0.25315429091666797
mp-8500,AsS2NF6,0.01977112113699775
mp-505732,FeCoH18(CN2)6,0.05540917751263042
mp-708038,H18Se3(NO3)4,0.4578839845125504
mp-981233,UCr3,0.3657327725000013
mp-573069,Ba2CaTl2(CuO4)2,0.0277029344814812
mp-850511,LiFeO2,0.07904095546875034
mp-762600,Li6Fe7O15,0.1141628391294649
mp-570641,SiC,0.03130864333333338
mp-1080261,CeSe2,0.5393373745833339
mp-26304,Cu9(PO4)8,0.008070018877550211
mp-775530,Li2Ti3FeO8,0.15037564785711946
mp-691123,Li7Mn10O24,0.02003340103658946
mp-761457,Li4Fe(PO3)6,0.0687389062069057
mp-581967,Nb2O5,0.0021996018367485
mp-705896,MgVFeMo3O14,0.01997401792187503
mvc-13592,YV3O9,0.13407682000000246
mp-9138,RbPO3,0.004971275999999136
mvc-12244,CaMn2O4,0.1412393057142758
mp-1077362,YMnNi4,0.032168741111116006
mp-31456,HfSbRu,0.03983805374999783
mp-1094475,MgZn,0.04673615540000031
mp-570,NdTe,0.0
mp-697809,LiFe2(PO4)3,0.11347687145833253
mp-707068,KH8O4F,0.009140311785713172
mp-18567,CaZn11,0.0
mp-631633,LaCoTc2,0.6504241637500003
mp-756458,ErAlO3,0.017959491250003626
mp-23520,InPb2I5,0.05645377500000004
mp-754382,He,0.00438156
mp-760361,H3NCl,0.2176606486746664
mp-775449,Li2Mn(SiO3)2,0.061069884999991324
mp-773526,Na3Cr(BO3)2,0.04246245124999515
mp-779250,Li2FeBO4,0.09485293781249382
mp-4078,La2SO6,0.0
mvc-423,Nb2VZn2O8,0.02529918679487331
mp-735514,MnH18C4N8(ClO)4,0.0879628689281109
mp-17620,TmBO3,0.3185168843166615
mp-567447,NaVO3,0.0010914805000021843
mp-1098848,SrMg30CuO32,0.048364682578125866
mp-28297,Nd3S2Br5,0.020074573249999617
mp-4824,NaZnP,0.0
mp-15987,Hf3(Cu2Si)2,0.0
mp-6781,AgCNO,0.1459688862799995
mp-1077808,VFeSb,0.4807425416666655
mp-779517,Sr3Hf2O7,0.02113592708333201
mvc-2987,SrMgMn(PO4)2,0.019624456634610432
mp-36903,KNO3,0.008168243500001005
mp-862936,PmMgAg2,0.0
mp-2977,CuAgTe2,0.05299628093749886
mp-993,DySi2,0.08707454000000059
mvc-10055,CaMo2P2O9,0.0
mp-775018,TiFe(PO4)2,0.04435613583333975
mp-28727,La4Bi2S9,0.0108436075000089
mp-36358,Ca(GdS2)2,0.019070060000000662
mp-1036381,CaMg14NiO16,0.030853899374999823
mp-752525,LiAgF2,0.06611648812500004
mp-607806,Ho3Se3N,0.0
mp-865917,Lu2ZnTc,0.06501462187500097
mp-1016604,BaMg6Cr,0.3258440259151789
mp-981207,Yb3In3Ge2Au,0.0
mp-1023509,Mg15Si,0.05104325881250117
mp-1035164,LiMg14SbO16,0.08177982579861176
mp-861481,Pr2AgRu,0.0
mp-771666,Li3Ni2SbO6,0.0600914933333545
mp-570596,Nd2Ni17,0.033800245789473486
mp-567167,BaMo(PO4)2,0.0
mp-29914,Er7(NiTe)2,0.0
mp-705574,LiMn16O32,0.1066836393622408
mp-675925,Ce2PbS4,0.054207990357143736
mp-1021698,BaMg6V,0.3574924086160731
mp-770465,Ba4Ce2O7,0.03605199923077063
mp-561826,Cr3CuO8,0.04313489109375901
mp-1097917,TlNiO3,0.4632206347083328
mp-1096827,AlCuS2,0.1047986412499986
mp-1004753,PrB12,0.06983090615384667
mp-3997,Sm(CuSi)2,0.0
mp-649086,GaFeO3,0.021014952999999004
mp-1016641,Mg6CdMo,0.2217307312500001
mp-1644,PrSb,0.2505265199999993
mp-25630,Li2VPO4F,0.038437397566509546
mvc-10959,VBiO5,0.3480743805357145
mp-4249,Hg(CO2)2,0.2490099357142865
mp-851046,Fe2O3F,0.09449925656249823
mp-973627,K3Sr,0.11441919999999994
mp-8401,CsMgF3,0.057703331750000864
mp-1018675,DyS2,0.0
mp-615314,ScCoC2,0.0
mp-1027880,Te2Mo3W(SeS2)2,0.09104702666666586