mpid,formula,e_hull
mp-705861,Rb10NaAl11Si13O48,0.11719134698794685
mp-545756,ZnSO4,0.03836117791666549
mvc-1351,BaW4O7,0.8843260893750031
mp-866073,MgSnRh2,0.0
mp-560324,Rb3Hg2S3ClO12,0.0
mp-978257,MgSn3,0.05349062062500032
mp-532348,Cu29(Ag6As7)2,0.04063344127272739
mp-626435,Al(HO)3,0.023174147857143446
mp-569849,Li15Si4,0.001032335969529008
mp-662566,Ca4Al6SO16,0.00487155500000025
mp-636698,YHf2Pb,0.4217777609374993
mp-675132,K6InP3,0.0
mp-1078335,Pr2BiN,0.0
mp-17981,Eu3IrO7,0.0
mp-1094624,MgGa2,0.057103108333335324
mp-973684,LuMg3,0.0
mp-1298,KAu5,0.0
mp-773635,Li8Mn2O9,0.059531556973685625
mp-850757,Fe3OF5,0.06507592722222633
mp-758176,LiCuPO4,0.08521103059525181
mp-1013703,Ca3BiAs,0.6942466225490227
mp-12411,Li2ZnGe,0.008264371875000176
mp-707955,Ru4C12N2O13,0.2327947085561313
mp-10821,RbC,0.3335095028125004
mp-771717,Mn2O3,0.0854324438750016
mp-772257,CoPHO5,0.08412631070312493
mp-35618,Lu10Ti6O27,0.08070469662790458
mp-568155,U(AlC)3,0.0
mp-1078167,PrIn5Co,0.004662866428570833
mp-626075,MnHO2,0.011101916953129455
mp-977053,Pm3Er,0.023911801874999302
mp-37310,Dy10Ti6O27,0.09548223709302306
mp-755691,Li2BiO2,0.08564153366666538
mp-863652,Ho2CdOs,0.0
mp-761996,Li2CoNi(PO4)2,0.016798159553574443
mp-37947,Na4C2O5,0.11262255556818168
mp-685698,Re8Pb8O27,0.07601268517441806
mp-1093749,BeCuPd2,2.3867585583333346
mp-1094338,SrMg3,0.0736093943749998
mp-23737,KMgH3,0.0
mp-1818,SiF4,0.0
mp-1096643,LiTl2Pd,1.2207051674999998
mp-1056957,C,2.6832687424999992
mp-554842,Cs5Si3AgO9,0.0
mp-555246,Ba3LuRu2O9,0.0
mp-7790,Ti2N,0.015694803333349938
mp-578,GaAg2,0.0
mp-985569,Sr2YCu3O7,0.02129150506410671
mp-25096,NiBiO3,0.017551548500001957
mp-565879,K3VSO3,0.0
mp-540321,FeP2O7,0.0936062839791676
mp-558276,K2Er(NO3)5,0.0
mvc-6970,MgVP2O7,0.02685429073863688
mp-1016377,CsHfMg6,0.35520568687499976
mp-774753,Li5GaO4,0.03374103812500007
mp-1008677,TiO2,0.3013199641666677
mp-1076951,CeNiGe,0.0016425291666672948
mp-675332,InI4,0.16615105649999973
mp-1096837,FeGeS3,0.16776671249999794
mp-767153,LiCo2(PO4)2,0.029098067788475568
mp-1018746,LaGe2Ir3,0.0013484324999994968
mp-757852,Bi16O25,0.04968983292682872
mp-565929,K2EuTa5O15,0.0
mp-762243,LiNiPO4,0.08775842005952761
mp-1034139,Mg14TiNbO16,0.1603748089843764
mp-973894,LaNdZn2,0.011843574999999884
mp-567269,TeI4,0.002617258000000121
mp-561083,Na3Bi(PO4)2,0.0
mp-971948,Zn3Co,0.012561768461545329
mp-850243,Li5Mn6(BO3)6,0.03341699054760028
mp-1068042,Yb(MgBi)2,0.0
mp-1025728,Te2Mo3Se4,0.02609917277777729
mp-555074,Hg3AsS4Br,0.0020821329166671454
mp-1020625,Rb8N3O,0.6304819022916641
mp-1037305,Mg30FeNiO32,0.00845906878906355
mp-23067,K2PdCl6,0.0
mp-1025128,LaCuPb,0.0
mp-776691,Li3VF5,0.0939550193055556
mp-865237,Tm2ZnIr,0.0
mp-559708,Li6ZrBeF12,0.012686911166668756
mp-534778,NaCa2ScZn2(SiO3)6,0.026934404444442173
mp-850462,Li4MnV3(P2O7)4,0.0024633434564824697
mp-556567,BaH16C4S4(NO5)2,0.21076478771621865
mp-8352,SiO2,0.012191454999999962
mp-30949,Sr3SiO,0.0
mp-23234,TmBi,0.0
mvc-4981,Mg2CrWO6,0.0696682491666678
mp-8959,CsK2PdF5,0.0
mp-865947,YbPrAg2,0.0
mp-8965,K2Sn2S5,0.0
mp-705134,In2(MoO4)3,0.0
mp-865284,Tm2CdOs,0.0
mp-1100584,Li9Mn2Co5O16,0.11628834124996335
mp-865277,TmZrRu2,0.0
mp-558743,WN3F5,0.1251637167022217
mp-28904,Na2Te4O9,0.0
mp-604914,VSe,0.12341852062500006
mp-559257,AgTeO3,0.0
mp-1026570,SrMg14W,0.2389571715625003
mp-863725,Pm2PdPt,0.0
mp-770420,Li4Ti3Mn3V2O16,0.08887269258928399
mvc-20,Nb2TeO8,0.1568068154545479
mp-644883,CuAg3S2,0.03674533388888879
mp-534773,Na2Al17Si11B7(H3O31)2,0.01898628619376108
mp-1018734,IrN,0.729196725476668
mp-1095724,BaLi2Pb,1.5438129707083332
mp-704186,LiFe4(PO4)3,0.04416120850001182
mp-1025326,Tb2Mo2C3,0.0
mp-1080679,LiTaF6,0.0
mp-1033108,YMg6AlO8,0.3681860169097213
mp-569094,P4Se3,0.011989578129250944
mp-570390,Ba5Al2Ge7,0.0
mp-1078750,NaCaH3,0.0649676484999997
mp-18934,LiV2O5,0.08198610812502682
mp-571216,Sr3(AlGe2)2,0.0
mp-1094237,ZrSn,0.30023140733333165
mp-761748,Li2CrCo3O8,0.04358109666666632
mp-667447,TeAs(SeF3)2,0.1973981967812506
mp-776139,LiVF5,0.08899658571429114
mp-778410,Li3Fe3OF7,0.1718994710714279
mp-767979,Li2MnOF2,0.09191732666666663
mvc-5900,CaP2WO7,0.2148300623863637
mp-769436,Li5(CoO2)8,0.037012770948277485
mp-2593,AlNi3,0.0
mp-33218,CuI4,0.1927563489999997
mp-769969,TaFeO4,0.10124467166666484
mp-1097121,CrSiOs2,3.9274988623611113
mp-9399,SmTe3,0.0
mp-1038197,RbMg30AlO32,0.08843876851562538
mp-1581,As2O3,0.0
mp-1027058,Te2MoWS2,0.11831683166666628
mp-11501,MnNi3,0.0
mp-578628,Sr2YCu3(PbO4)2,0.04627282578124969
mp-975160,Nd(Mg4Al3)4,0.03272420521220143
mp-36088,La5SmS8,0.03159267571428258
mp-31468,LiCaN,0.0
mp-19513,SrV2(AsO5)2,0.003579909000003489
mp-21084,In6Ga2PtO8,0.0
mp-1074455,Mg4Si3,0.21314135230158904
mp-977413,HoCdHg2,0.0
mp-864645,YbSiPt2,0.0
mp-773409,NaLi5Fe2P2(CO7)2,0.03269158403846095
mp-676275,Nd2Pb5F16,0.04262219797101442
mp-772788,Ba2Cu2O5,0.0
mp-774185,Mn6OF11,0.03527532451389348
mp-1096247,Ba2BiI,1.2064883930729169
mp-558366,SiO2,0.7866485329166668
mp-1094382,MgTi3,0.13593226499999922
mp-16511,Mn3Al10,0.010038706538462172
mp-626449,PH3O4,0.010731225937499644
mp-22343,Ce(GeRu)2,0.0
mp-995190,KCaSiHO4,0.015559325312494819
mp-703380,H6CSBrN3,0.11625312806803567
mp-775452,Li4Mn3Co3(WO8)2,0.04234115267858042
mp-850434,Li5Mn6(BO3)6,0.033604098404742544
mp-770147,Li3FePCO7,0.09153005538461476
mp-773007,LiCu5(PO4)2,0.11426438140625005
mp-547244,SrBiClO2,0.0
mp-9383,SrHfN2,0.03139056000000018
mp-662954,Gd2SO2,0.0
mvc-9153,ZnCr4O8,0.1646271480769208
mp-566321,BaVClO3,0.0
mp-770406,Sm2WO6,0.0
mp-1094006,Zn(GaS2)2,0.14104247999999764
mp-1097269,HfBeIr2,3.372683482500003
mp-1099107,SrMg6Al,0.1436928206250001
mp-761033,Hf3N2O3,0.0
mp-861109,SmY3O6,0.005317295687499168
mp-769566,Li5Fe2Co3O10,0.048484868000003616
mp-554781,Tb3CuSnS7,0.004964986562500329
mp-862907,CaCeMg2,0.12598592875000006
mp-864876,TbInRh2,0.0
mp-760378,LiTi2O4,0.0415490449999858
mp-1028598,Te3W2Se,0.04269786104166684
mp-14215,Ba4GeP4,0.0
mp-1099140,Mg14MnBO16,0.2203139924068757
mp-560088,Cs2Li3F5,0.0914326749999992
mp-851059,Li4V3P8O29,0.046903030075754686
mp-505465,As2Pb2O5,0.0
mp-865320,Lu2PdRu,0.0
mp-865957,AcSnAu2,0.0
mp-1078492,Cr3PC,0.03599086487499825
mp-30086,GeCl4,0.0
mp-570442,Th6Mg23,0.011173515862068495
mp-864670,Ta2VOs,0.0
mp-20157,BaGdCuSe3,0.0
mp-18751,Mn2ZnO4,0.0
mp-6759,BaGa2(SiO4)2,0.0
mp-780750,LiMnSiO4,0.09313014679297993
mp-851257,V2OF5,0.001978552499998898
mp-971753,ZnGe3,0.2719188650000004
mp-1282,VC,0.08838305715277706
mp-558139,CuS,0.2734344641666713
mp-867920,K2Rh2O5,0.0
mp-10446,Sc6NiTe2,0.0
mp-771078,Li3FeBO5,0.09669241678125128
mp-565400,ReAsC5SNO5F7,0.1702117073569056
mp-32076,LiMoP4O13,0.016985413771950952
mp-9636,CsSbF6,0.0
mp-542920,LaFeO3,0.0
mp-466,Nb2F5,0.0
mp-780164,Na6Co2C4SO16,0.0
mp-851045,Fe3O5F,0.11216799263888877
mp-24927,CrHO2,0.0
mp-769545,Li10FeNi9O20,0.006162813937500289
mp-1099274,Mg6FeNi,0.2217345187499995
mp-570989,UCl5,0.0
mp-30618,DySnPd,0.0
mp-4689,Al7FeCu2,0.0
mp-10488,Cs2Ti(AgS2)2,0.0
mp-13392,NdCu,0.0
mp-673245,CuI,0.009382638750000005
mp-2345,Dy2O3,0.0
mp-30186,Ba3Si23,0.03714813923076843
mp-20009,NaPr2OsO6,0.0
mp-754406,Li2CuPO4,0.06008549718750177
mp-775777,LiFeF4,0.06170304268519367
mp-770549,Li4Cr3Cu3(TeO8)2,0.022153990158728654
mp-18656,GdGaO3,0.04900475924999981
mp-4769,SiP2O7,0.0
mp-25791,BaV2CdO7,0.008924295454548314
mp-18136,UTl4C3O11,0.0
mp-3627,Eu(Mo3S4)2,0.0041959458333344895
mp-566124,CrAg3ClO4,0.009914248888888366
mp-778063,Ti3Mn2Ni(PO4)6,0.009730767696735755
mvc-6416,Ca(NiO2)2,0.04487980428571437
mp-695074,KNa3Al4(SiO4)4,0.017945415178571622
mp-561131,NaGd(PO3)4,0.00028188525462624625
mp-745144,VH24C8S2N2O9,0.18562730326086999
mp-542388,Lu7Te,0.00777665726190513
mp-1095488,UB4Os,0.0
mp-735519,KHoCoSi2O7,0.0637503457500026
mp-25029,LuMnO3,0.050167252666684085
mp-1095151,BaCdAsF,0.0
mp-684525,Cu2Se,0.12888469999999996
mp-780641,MnCrO4,0.08531609375000747
mp-546757,Sn3PO4F3,0.0
mp-19320,K2FeO4,0.0
mp-1006886,CeS,0.3786943299999974
mp-565882,CoF3,0.07435099375000043
mp-31888,LiFe2P5O16,0.003958375763896349
mp-646297,Hg4Pb2N6O19,0.0
mp-31197,Er(FeSn)6,0.023120780619657392
mvc-5243,Ca(AgO2)2,0.2348116752380953
mp-1017247,HfMg6B,0.5227639665625001
mp-600172,CuH12C5S4N,0.1105924986425979
mp-565529,V4Fe2O13,0.0
mp-7262,ZnAs2,0.0
mp-762777,Li3Fe2Ni3O10,0.09729103620370427
mp-1019731,EuAl3(BO3)4,0.0
mp-1032754,YMg6NiO8,0.25950160374999953
mp-768229,Li2BiS3,0.06824313666666626
mp-555884,ErCuTe2ClO6,0.0014890836363541382
mp-1095440,CdS2,0.0
mp-1080241,Li2Ge(S2O7)3,0.0
mp-757535,Li35(RuO4)12,0.0032135538903492744
mp-7029,SiO2,0.0031319983333304435
mp-27962,CI4,0.5331668765000002
mp-1519,CaTe,0.0
mp-643923,Zr2CoH5,0.0
mp-573024,Na2Cu5(Si2O7)2,0.0688984072999963
mp-21717,Fe7C3,0.0587040785000017
mp-561113,Ag2BiO3,0.001248952083332533
mvc-1335,BaMn4O7,0.3783978844444338
mp-562007,Ba2CeC3O9F,0.0
mp-6899,CaBePO4F,0.00636696265625325
mp-1098796,Mg30TiFeO32,0.0558449676171886
mp-675514,Ce3AsS3,0.013154961071424331
mp-1021900,Mg6NiC,0.3593493865624997
mvc-8326,ZnCu3(NiO3)4,0.10151079019791533
mp-646195,RbCrF6,0.0
mp-1029531,Sr3ReN3,0.0
mp-642890,LaSe,0.24822589750000024
mp-609,CrSn2,0.1472068025000004
mp-504167,LiMn6P7O24,0.0
mp-21838,Ce(SeO4)2,0.0
mp-560840,TiS4(NCl)4,0.0998455694874707
mp-571578,CdI2,0.0009248652222224596
mp-567511,H8PtCN8,0.12425177054481296
mp-769810,Sr3WO6,0.0
mp-1078732,V(NF2)3,1.3940877261670028
mp-1079012,Cu2SnHgTe4,0.0
mp-20987,YZnSn,0.0
mp-1078217,NaFeF3,0.009636758499997457
mp-763768,K8Li9Mn4O16,0.045938456630065794
mp-2434,SrTl,0.0
mp-560342,Ag4GeO4,0.011457879722224895
mp-25946,Sb2P5O16,0.005382523641300986
mp-984628,CaBO3,0.8964383696250016
mp-764198,LiVOF4,0.03333430866071918
mp-1013526,VS2,0.01721867666666821
mp-1028269,Mg14AlV,0.10286941218750023
mp-1026401,KLiMg14,0.1036468487500002
mp-24761,RbGaBP2HO9,0.0
mp-698613,La14Mn16O45,0.08761612149997157
mp-23969,ZnH2SeO5,0.0
mp-13181,LaF3,0.1811057254166677
mp-865867,Li2YTl,0.0
mvc-7066,Mg(MoO2)2,0.2242318960714229
mp-3186,TbB2Ru3,0.0
mp-1008277,CrCo2As,0.1752367214583348
mp-22551,UP2(PbO5)2,0.0
mp-567186,La3Co29(Si2B5)2,0.00034658456521885483
mp-635413,Cs3Bi,0.0
mp-16543,Cs3Cu5O4,0.0
mp-546643,K4CO4,0.195379782777775
mp-867256,DyCdAg2,0.0
mp-568668,DyFe2SiC,0.0
mp-780136,Li3Mn4(BO3)4,0.042878325905777004
mp-31077,Tl2TeI6,0.0
mp-769108,NiP4,0.07561762488095347
mp-772691,Na2VSiCO7,0.016001388333307
mp-1069751,Pr2Os3,0.477524278749998
mp-558924,Na5Ga3F14,0.0
mp-1023304,RbMg6Al,0.2737591435576925
mp-862774,LiInPt2,0.0
mp-2698,YCu2,0.0
mp-775345,LiTi2VO6,0.04036257299999591
mp-1168,HfTe5,0.0
mp-1036100,Mg14MnCO16,0.2331867613671861
mp-1018723,HoCo3Cu2,0.051533128454542165
mp-6596,MgAlPO5,0.0
mp-762421,Li15Mn2O12,0.05564289431034464
mp-771121,La2HfO5,0.027569520000028547
mp-505743,GaBPbO4,0.0
mp-698375,CuH12C5S4N,0.10784320244694624
mp-771394,Li4Ti3Mn3Cr2O16,0.04696378907735088
mp-10125,SbIr,0.08617336374999951
mp-540494,CoP2O7,0.05545851418751635
mp-781080,Fe4O5F3,0.09346322390625073
mp-684007,Ba19(InN)9,0.021123136162161767
mp-997531,LiFeSiO4,0.04448645089285018
mp-13475,CeSi2Ir3,0.0
mp-1087537,CrPPd,0.11726775958333313
mp-17094,Ge3Mo5,0.03756477837499972
mp-15639,HgRhF6,0.0
mp-764908,Li3VO3F,0.0660399731250001
mp-864948,MnGaPt2,0.012369199374999695
mp-560807,K(CoS)2,0.0001348700000018965
mp-979283,V3Cu,0.1615092950000001
mp-4692,Dy(SiNi)2,0.0
mp-555071,BrN(OF2)2,0.05864977197916499
mp-5843,Ce(PO3)3,0.0
mp-754475,Tm2SeO2,0.04526864199999903
mp-19052,K3VO4,0.02153575281249953
mp-555164,Ca5P3ClO12,0.0
mp-972069,Ti3Ga,0.012717423749999844
mp-2152,YNi5,0.0
mp-1005986,Zr9CoMo4,0.0
mp-624691,VAgO3,0.009645053000201464
mp-767729,Li12V3CrP4(CO7)4,0.07450507342548196
mp-1097411,GaSnRu2,2.810148619375
mp-952567,Fe2S3,0.12518091600000236
mp-10106,Ca2As,0.04555132222222237
mp-569600,Ge3As4,0.04978202863095138
mp-16713,Pr2B5,0.0
mp-21008,Ni3Ge,0.0
mp-19277,VSO5,0.027692487142858543
mp-18990,Ba2Mn(BO2)6,0.0
mp-1059925,CdSe,0.002272850000000215
mp-1039334,MgBi,0.1105022641666662
mp-558301,SiO2,0.20735872708333325
mp-31698,CrP2O7,0.021208817312492027
mp-16764,RbYTe2,0.0
mp-703528,RbP(HO2)2,0.006858958749998756
mp-685151,TiO,0.18058456749999865
mvc-15387,WN,0.20298928749999767
mp-8235,K2SiP2,0.0
mp-555610,Ce(BO2)3,0.019805807950040943
mp-19472,Rb2MnV2O7,0.0
mp-24953,DyFeO3,0.0
mp-19102,Sr2FeO4,0.0
mp-1037140,Mg30CuCO32,0.14660616789062253
mp-1026684,Mg14SiMo,0.1618816911607146
mp-565319,NaSrFeF6,0.0
mp-763290,V3(O2F)2,0.017964878333348366
mp-975905,Mo3I,0.9773247624999994
mp-566379,KCrIO6,0.0
mp-767592,Li3V(SiO3)3,0.09692737378906102
mp-10647,TlSe,0.20318392499999927
mp-772705,Li5Nb2Fe5O12,0.06667305927083067
mp-984049,CeYZn2,0.026843374375000728
mp-776773,LiFeF3,0.09883121774999548
mvc-7873,BiWO5,0.3288909370535702
mp-11156,TmMgGa,0.0
mp-853136,Li2Mn5(Si2O5)6,0.05361240438774573
mp-761891,Li3Ti4O8,0.04607860766668104
mp-5057,Nd(SiAu)2,0.0
mp-1027898,LiMg14Fe,0.1229032887499999
mp-707398,Mg2PHO5,0.4123188171296288
mp-32800,Ac2S3,0.0
mp-24982,Fe2PO5,0.01108208187499038
mvc-16334,CaSb10(S3O5)2,0.0
mp-738680,ZrH27C8N2Cl5O2,0.08750966361111079
mp-39684,GdTiCdSbO7,0.0
mp-1095495,YZn2,0.034321520000000216
mp-978512,SmTmMg2,0.0043556974999998666
mp-3595,ZnSiAs2,0.0
mp-19750,BaGd2PtO5,0.018368963379636227
mp-571419,Zr2Al4C5,0.05078953596590896
mvc-5055,Ca2VWO6,0.02873984693749598
mp-769792,Li4Fe5CoO12,0.09805863336648013
mp-765889,Ga2CoO4,0.0
mp-18335,Ba2Ge2Se5,0.0
mp-557900,SbCSCl2F9,0.03446949736296824
mp-1094562,Li2Mg,0.01950442750000092
mp-647247,Er2Ga10Os3,0.0
mp-20170,CeCrSe3,0.0
mp-620828,Rb2NaFeF6,0.0
mp-559270,RbBa4Sb3O,0.0
mp-31787,Li3Fe(PO4)2,0.030772840982144167
mp-642654,SrH2O3,0.2821715460416669
mp-1077367,Ce2Bi,0.0
mp-738646,Ag4Te(ClO3)2,0.4544115878205126
mp-31930,MnPO4,0.1509925148611213
mp-1023508,CaMg15,0.03663559718750009
mp-765275,Li3V2F12,0.027443895000025087
mp-540736,BaCd(PO3)4,0.0
mp-1029066,Te2MoWSe2,0.06980809000000042
mp-775166,Li2TiMn3O8,0.014014320631225985
mp-771062,Li6MnFe3(PO4)6,0.046761576093759416
mp-776763,Ti3(WO6)2,0.0398731047059222
mp-11919,Sr(BeN)2,0.0
mvc-9500,Zn(AgO2)2,0.15767023375000022
mp-764731,Li2NiO2F,0.08886366583333771
mp-973334,NaMg,0.10328234000000004
mp-610517,Ag2S,0.02355709750000212
mp-1095240,Ca3(GeIr)4,0.0
mp-1035703,HfMg14ZnO16,0.1892313533593759
mp-776008,TiFe2Ni3(PO4)6,0.08376877600694499
mp-27465,S8O,0.0
mp-672274,YbIn4Rh,0.005439818333333957
mp-1013736,Ba3Bi2,0.3882184566666687
mp-1076659,KNaMoWO6,0.022484886999998288
mp-763838,Na2LiCaVP2O9,0.08976327486978786
mp-705785,VZn2O4,0.01973429357143264
mp-582657,Ti4Te9I4O,0.0
mp-699315,Ni(PO3)3,0.07218671168269708
mp-1078370,CeBi2Au,0.0
mp-1069526,Ce3InC,2.1324256279999982
mp-409,NaS,0.002528966666668353
mp-765186,Li2VF5,0.05001718364582253
mp-771640,BaSrI4,0.06445610729166695
mp-567949,Hg3AsSe4Br,0.0
mp-17912,Rb3SbSe3,0.0
mp-558162,RbP(OF)2,0.0
mp-32077,Mo2(PO4)3,0.0017424011764628489
mp-8122,ErCuSi,0.0
mp-770042,Li2CrFeO4,0.17342818562500906
mp-19463,Na5Tb(WO4)4,0.0045255951922644755
mp-777327,V6O7F5,0.034103174444458866
mp-1072586,SmCdNi4,0.0
mp-540460,Cr4(PO4)3,0.03973630065791234
mp-974747,MnCu3,0.09759239625000048
mp-568066,Pr2CBr,0.0
mp-568534,P4C2Se3N2,0.3355265822073852
mp-581786,Cu3Sn,0.017316694999999882
mp-20706,EuPPd,0.0
mp-28242,Tl6SCl4,0.011170409999999631
mp-974758,Rb3Tl,0.11303336340909098
mp-706879,Al2NiO4,0.029116973265302267
mp-28618,Y3(Fe31B7)2,0.2628698878480993
mp-510243,Eu(BS2)2,0.00722031517857058
mp-865869,Be2CuPt,0.0
mp-853161,CoOF,0.104244293749999
mp-1032301,NaMg6CoO8,0.10709254687499037
mp-567838,La2AlNi9H,0.03791274495192365
mp-559568,K2Se2O5,0.0
mp-867254,SmAgAu2,0.0
mp-864638,Ba2InBiS5,0.0
mp-651122,Mn3Bi(CO)15,0.6168516276838245
mp-25481,LiCoPCO7,0.05317197747158975
mvc-15141,Co(BiO3)2,0.28140301296296144
mp-767909,LiCoPO4,0.056904590178572974
mp-557908,AsH5COF6,0.163610399821434
mp-1097088,InAgAu2,1.0537627191666663
mp-19888,YbCuS2,0.1731597633333335
mp-1094714,Mg5Bi,0.05709906500000006
mp-849062,V3S4,0.2514943257142832
mp-9726,SrBeF4,0.0
mp-1017478,LaMg6Cd,0.10700018171875003
mp-767134,Sn2P2O7,0.03354442386362422
mp-29776,Ce4Ge9Rh13,0.0
mp-2080,SrBe13,0.0
mp-1059,NdCd,0.0
mvc-9864,ZnCo2O5,0.21280820133223705
mp-561827,Cs3TlF6,0.0
mp-600038,SiO2,0.025475373333332385
mp-3566,Ce(SiRu)2,0.0
mp-573909,Hg(CN)2,0.4202754915479989
mp-687092,Sm2Mo2O7,2.7614545455634253e-05
mp-610738,Zr(InBr3)2,0.0
mp-6789,Ba2Y(CuO2)4,0.2744861766666711
mp-555131,CsCO2,0.0
mp-542050,LiV6O13,0.05424931100002972
mvc-4703,Zn(BiO2)2,0.19388067821428656
mp-865422,YbTmRh2,0.0
mp-570564,Ce3CuGeSe7,0.0
mp-1077244,GdZnGa,0.0
mp-570697,CaC2,0.7689972991666759
mp-5795,CaMg2N2,0.0
mp-560468,Pr3Si2S8Br,0.0
mp-769682,HfFeO3,0.08582831349999864
mvc-15370,YTiF5,0.2620552107539664
mp-29018,ZrSnCl6,0.02209970406250328
mp-972978,ScVO3,0.8048039999999919
mp-756401,TaAsO4,0.09146237624999642
mp-780297,Li3Mn2Fe(BO3)3,0.002543077962964269
mp-775499,Na2MnPCO7,0.011202082291666748
mp-622785,FeSNO,0.6646041118737509
mp-625600,Mo(HO2)2,0.03309409553571285
mp-675832,SrCeN2,0.04037190250000045
mp-567086,KV2CrO7,0.017966685852281117
mp-767918,Li4FeNi5(PO4)6,0.08429804692187215
mvc-14582,WF4,0.0038188896666646603
mp-1077179,As2W,0.0029164541666650834
mp-643579,SbH3OF6,0.0
mp-540604,Dy6Fe16O,0.828733566135269
mp-757464,LiNb(PO3)4,0.07227877907803393
mvc-6541,CrF5,0.3098705970833349
mp-1097253,ScCo2Ge,2.88873510375
mp-1093670,LiHg2Rh,1.3231400850000006
mp-1034819,Mg14SiBO16,0.28613628297526184
mp-777488,Li3FeF6,0.0283770433333439
mp-11258,TbAu,0.034506024999999774
mp-686077,Er18Ti14O55,0.06866211247126053
mp-23632,Ca2BN2Cl,0.0
mp-569597,Np(FeSi)2,0.0
mp-861490,Li5Mn2Co3O10,0.035050258000000944
mp-16861,Na5GeAs3,0.0
mp-676673,NaClO2,0.3070021362500004
mp-568989,Li7NiN4,0.10976981982638903
mvc-273,Sr2Cu2SbO7,0.2859157431249981
mp-561090,SiO2,0.014946731568628024
mp-31541,LiCoPO4,0.006694894702383714
mp-768305,Sr2HfO4,0.0186042653571441
mp-570696,Pr5Sn3,0.0
mp-981310,Tl3Ge,0.16655420749999994
mp-1017578,HfBRh3,0.0
mp-1067043,GdFeC2,0.0
mp-865288,TmTlRh2,0.0
mp-755315,BaTl2O4,0.02334892678571432
mp-675682,Al11NO15,0.04225583259259391
mp-558268,Ca4Si6Pb6Cl2O21,0.0
mp-1028690,TeWS,0.09715341041666736
mp-1078831,KAs,0.8477760162499997
mp-1026444,Mg14TiNb,0.10496241395833383
mp-740758,H2Os4Pt(CO)15,0.22419271351351355
mp-774413,MnV3(PO4)6,0.025307098382333137
mp-981376,ScSnO3,0.6717987756249997
mp-1097006,KAlH3,0.1813968699999995
mp-773930,V3(WO6)2,0.0780250932353006
mp-770669,Li24Mn11CrO36,0.002253989861112693
mp-722382,PH11C(NO2)2,0.21160779756579007
mp-864983,MnVRu2,0.0
mp-775521,Li4Cr2Cu3Sb3O16,0.09680307270336908
mp-766358,Bi5O7F,0.08734598807691896
mp-1087501,NdGe2Rh,0.0024469948214349557
mp-24316,CdP2(HO)4,0.07785589912878788
mp-17291,Na3SiTe3,0.0
mvc-9127,Zn(MoO2)4,0.2441100973076917
mp-972120,Sr(GaAs)2,0.0
mp-1021776,Mg6VMo,0.2616175012500004
mp-555065,LiEr(PO3)4,0.008857862129627136
mp-861466,LiMnPO4,0.05317420964285713
mp-697128,KCa2P4H11O18,0.00416493819444419
mp-558293,K2Na(B3O5)3,0.0
mp-4499,MgAlSi,0.0200356534259285
mp-778151,ErLuO3,0.09166103875000076
mp-1072437,YSiNi4,0.0
mp-32532,VRe2O9,0.0
mp-565408,BaLiCoF6,0.0
mp-568245,NbBr5,0.002299598541666725
mp-10383,LaTeAs,0.0
mp-1019535,BaAl2(SiO4)2,0.004626662499992662
mp-19442,Mn(Ni3O4)2,0.0022329038494568465
mp-2849,US2,0.0
mvc-10558,Be3Si3(MoO6)2,0.10914744225000028
mp-761673,Li4Mn3Ni(PO4)4,0.0040032365179536455
mp-865466,TiH8(NF3)2,0.0
mp-542635,SeN,0.6260542432631251
mp-571232,YbBr2,0.0010177916666660456
mp-567692,Y3Ni4B4C3,5.453500000029976e-05
mp-1094949,CeMg3,0.09671672000000033
mp-19410,ZnCr2O4,0.0
mp-568324,Cr5Ge3,0.1131209993749982
mp-15656,Si4Ir3,0.0
mp-764742,Fe2O3F,0.09405323364583218
mp-866226,CaTmPt2,0.0252425372916667
mp-760483,Li2PdO3,0.0
mp-778890,Li3MnV(PO4)3,0.06666689856246588
mp-18897,NaVTeO5,0.0
mp-772740,Ba4Lu6O13,0.049197813387680256
mp-774312,Li4CoNi5(PO4)6,0.10172741593749723
mp-771285,Li24Ti7Cr5O36,0.012681298611121328
mp-1027792,Mg14FeW,0.2603297619642855
mp-510625,CrCuO2,0.0
mp-765787,LiNiOF,0.020410553749999668
mp-566238,FeP2PbO7,0.0
mp-850814,NaSbO2,0.0034906689374984983
mp-17792,K2Hg3(GeS4)2,0.0
mp-29184,Cr2P,0.014918268472221996
mp-1071531,ReN2,0.1112418147622254
mp-18536,AgF3,0.0