mpid,formula,e_hull
mvc-5452,CaNi2O5,0.37022300296874894
mp-720804,K3Na3TeP6(HO4)6,0.02780587819767799
mp-1094072,Pr3AlN,0.0
mp-22072,YbF3,0.0
mp-774096,Li2FeO2,0.0
mp-672392,Dy(FeSn)6,0.018211083435899944
mp-1096009,Na2TlPb,1.1251982621875
mp-557062,ZnS,0.0008129425000000801
mp-730972,UP3H10ClO8,0.03970530620963153
mp-7083,LaSi,0.0
mvc-3413,ZnSnF5,0.14646851750000778
mp-703593,ZnP2(HO3)2,0.5182001728038053
mvc-10001,Ba2V2F11,0.07331677388888735
mp-1094666,Mg3Al,0.06573733649038438
mp-762428,LiCrSiO4,0.04667642607143208
mp-1098924,Mg30VNiO32,0.027811043437499627
mp-705369,LiCo6P7O24,0.01229056713816945
mp-1029815,KMoN2,0.0
mp-861684,LiMnPO4,0.0752281819642846
mp-3384,Er3Al5O12,0.0
mp-770987,Li3Fe(NiO2)4,0.006956239374999562
mp-735518,FeH2Cl5O3,0.5191367542171714
mp-1096962,CrN2,0.3389593714983317
mp-769641,Li2VCrO4,0.007519164375000109
mp-866871,Ca4SnS6,0.12560827295454668
mp-675648,Pr9Be4O20,0.1121957813447052
mp-10784,RbErSe2,0.0
mvc-5566,CaNiO2,0.15967131374999874
mp-761956,Li3V3P8O29,0.04585633037791048
mp-569333,Li2AgBi,0.003563958749999596
mp-764629,Rb3NaV4H2O13,0.008185605543475026
mvc-10017,LaCrWO6,0.08599775152777768
mp-20254,Na2Te2O7,0.0
mp-20374,Ho2C(NO)2,0.0
mp-769875,Li4CrF6,0.04290578136363443
mp-778552,Fe3(OF3)2,0.11098201471591462
mp-29246,Cd2P3Cl,0.009067961458333771
mp-705894,RbSi2Mo3P6O25,1.074123685135131
mp-721592,Ca6Al7O16,0.0
mp-767872,Li3V4(PO4)6,0.020432309256725567
mp-23276,InCl,0.0
mp-707364,AgH3CN3O4,0.3600260488825002
mp-861717,Li8MnFe7(PO4)8,0.0004748496428366167
mp-2672,K2O2,0.0
mp-23926,K2HgH2Cl4O,0.003130789749999252
mp-560165,Cu(BiO2)2,0.08743112892857141
mp-27396,NiCl2,0.0
mp-11275,Be2Re,0.0
mp-1097390,Hf2CoRu,3.7596237975
mp-672963,Sb(PO3)4,0.03830088977939728
mp-16314,TmSbPt,0.0
mp-1097606,Zr2InAg,3.0018336820000004
mp-764403,LiMn7(OF3)3,0.0573128039999995
mp-851029,Li4Ti3Ni3(SnO8)2,0.02547003902174083
mp-774337,Li3Ti2FeO6,0.08205409604166293
mp-744517,LiMoH6NO5,0.1085683340436816
mp-542451,Rb2NaAl3F12,0.0
mp-12059,Sm(PRu)2,0.0
mp-3807,Al2CdSe4,0.045688855000003414
mp-1029379,Te2MoWSeS,0.09521356083333464
mp-1094082,Ni4O,1.508315077999999
mp-760832,LiTi2O4,0.10087099928573197
mp-540982,VP3(HO5)2,0.0
mvc-11819,Al14(CuSe8)3,0.0599629770026695
mp-566448,KSbMoO5,0.0044199721874997894
mp-1035754,Mg14ZnCdO16,0.036967500781250884
mp-746702,CsFeH24(SO10)2,0.006160652291662849
mp-720461,P3H22C3N9O11,0.013219642432736656
mp-772490,Li4Ti3Mn3(WO8)2,0.056196634226191484
mvc-6019,Zn(SnO2)2,0.2743883739285762
mp-570025,Mg21Zn25,0.0
mp-865964,Li2CaSn,0.0
mp-558943,LiUAsO6,0.0030017088888891767
mp-1023900,SiS,0.08613774250000095
mp-1027152,Te6Mo3WS2,0.09808421083333307
mp-504807,MgP2H20C4(N2O3)4,0.022328945421591584
mp-1094361,Mg2Ti,0.1508376652777832
mp-754698,NbO2,0.09920488000001804
mvc-7210,BaTiAlCuO5,0.546472652152775
mp-1096757,NbCr2Re,4.094299938750001
mp-600053,SiO2,0.0166728277380912
mp-699213,CsZn2P2HO8,0.0
mp-1013563,Ba3BiAs,0.16442472517948792
mp-1035955,YMg14SiO16,0.24790975357421896
mp-850378,H11S2N3O7,0.01945139389594175
mp-636380,Li(MoO2)2,0.03487304732142782
mp-706979,PH6N3O,0.006986800492424727
mp-27755,KAlCl4,0.0
mp-763486,Li2Mn3OF6,0.07436070916666537
mp-770062,NaVSiO4,0.0457844555357374
mp-770885,Li3FeO3,0.06885247142857231
mp-636273,Nd3GaN,1.7301708414999988
mp-761523,Li2Mn2(Si2O5)3,0.05470047845000181
mp-813,ScAl2,0.0
mp-758727,CuCO3,0.12887917094444568
mvc-7687,BaAlCoCuO5,0.36569698840278697
mp-721238,Li10Sn(PO6)2,0.10049371420000153
mp-10555,Ba2LiReN4,0.0
mp-744017,CoHCO3,0.4627737858333321
mp-720789,UH12(NO7)2,0.0038733907758601305
mp-1099259,LiMg3O4,0.05170756562500056
mp-559826,ErCuS2,0.006056006249993473
mp-32340,K3(NiO2)2,0.0
mp-20846,CaIn2Ir,0.0
mp-1016250,Mg3B,0.6523829337500007
mp-647218,Re2P2O11,0.0
mp-582134,Y3Ni2,0.0
mp-777094,Li3LaNiO4,0.08192978805555651
mp-1080328,CeSe2,0.1457103062500007
mp-31178,DyAl3,0.14911042124999965
mvc-1996,MgSbAs2SeO7,0.2283578335533809
mp-763169,V2(OF)3,0.008237893125000895
mp-772344,Li5Nb2Ni5O12,0.11363645031250247
mp-568536,BaI2,0.005665307083334348
mp-769794,Li2CrO3,0.006356615833335688
mp-675835,Dy2Zr8O19,0.08776008000000067
mp-603910,ZnH14C2(N2Cl)4,0.07013315615134808
mp-1030753,Te4Mo3W(SeS)2,0.09415807166666744
mp-28845,OsO3F2,0.00100731791666675
mp-1013583,Sr3Sb2,0.3786505477058819
mp-1074681,Mg2Si,0.2063253328333352
mp-632502,Zr2InNi2,0.0
mp-21406,Eu3TaO6,0.04695803774999874
mp-757218,K4Na2H18Pd(IO10)2,0.0
mp-556716,ZnS,0.0012043874999969615
mp-978849,Sm3Mg,0.06185918125000001
mp-977343,H3Pt,0.3802189685349999
mvc-10890,NiO2,0.10344012638888957
mp-1094063,Sr12Al14O33,0.0017289573269900767
mp-1032987,Mg6AlBO8,0.4350673705859371
mp-754692,Bi2BO5,0.03985873812502838
mp-1032112,Mg6CuNiO8,0.025365678749999176
mp-570876,NaNd(GaSe2)4,0.0
mp-1029236,Te3MoWSe,0.04854663729166564
mp-1034523,SrMg14VO16,0.09996025990234614
mp-910150,CeScSi,0.07157104106060785
mp-13038,Dy2C(NO)2,0.0
mp-560417,SnO2,0.13292866166666695
mp-764743,Li6MnV3(PO4)6,0.04364922549996919
mp-625268,FeHO2,0.09921096906250072
mp-1080477,I(NO3)2,0.5833680788518514
mp-1008471,CdTe,0.18197534749999988
mp-956,U3Si,0.0
mvc-145,Ba2Ca3Tl2(FeO3)4,0.22998953478261355
mp-1076534,RbTaO3,0.05670906100000118
mp-758178,Li2Cu3(CO3)3,0.09751982647058988
mp-570014,YbSbPt,0.0
mvc-6459,Zn3Co3(AsO4)4,0.036526309711544684
mp-626000,NaHO,0.0
mp-561207,UV2O8,0.0
mp-562403,CsAsOF4,0.0
mvc-7960,CaCoAs2O7,0.017604623766222183
mp-849461,Na3MnO3,0.0408119746428568
mp-767916,Li2SiNiO4,0.0176626840624996
mp-763259,Mn3(PO4)2,0.0
mp-673637,Ti9S10,0.03295772984210643
mp-1029074,Te4MoW3(SeS)2,0.0871761181250017
mp-570430,TaCo2,0.02418425633333144
mp-510281,FeCuO2,0.0
mp-20736,Ce,0.08680556000000017
mp-761910,Li3Cu2F8,0.029572537692305726
mp-1094185,HfMg3,0.2525904512500001
mp-9867,Ba2Si3Ag,0.0
mp-1078587,Lu(CuSn)2,0.10269192300000007
mp-530449,Ca3(AsO4)2,0.0
mp-761126,Cu4OF6,0.09226962954545216
mp-566256,CaFeSbAs2O7,0.0
mp-767564,Na5LiFe6(SiO3)12,0.002869794666656489
mp-765456,Li4Mn3Cr3(CuO8)2,0.06604328180064822
mp-773759,Co3(OF2)2,0.08988909527777622
mp-1097680,Ca2MgZn,1.5191024303124985
mp-12637,Ba2NdNbO6,0.015573327999993225
mp-770508,Li4Ti3Mn3(FeO8)2,0.04293302951745659
mp-30723,Th2Hg,0.0
mp-862618,LiErHg2,0.0
mp-1028286,Mg14VCd,0.08324643250000019
mp-1023484,Mg6AlCu,0.10464339035714287
mp-690133,Co2RuO4,0.08977121214285777
mp-770689,Li2MnAl2O6,0.08092321515151113
mp-30702,Sc29Fe6,0.0298053589285745
mp-218,Sm2O3,0.0
mp-1074382,Mg4Si3,0.16535061801587414
mp-684127,K3(Na13In24)2,0.0
mp-1026946,Mo3W(SeS3)2,0.010492814999999213
mp-973910,PaAlCu2,0.014350374166667734
mp-30303,Bi4O7,0.0
mp-19661,Rb2Ni2(MoO4)3,0.0
mp-1093912,CaHg2Bi,1.189989208125
mp-20178,CeBO3,0.008087222999998644
mp-764038,Mn12O7F17,0.09094044052083028
mp-861981,HoMgZn2,0.0
mp-626340,Ba(H8O5)2,0.05319028722222452
mvc-36,Ca(MnS2)2,0.15817551428571353
mp-771608,Li3V6O16,0.022412446199998826
mp-705377,Li3Ni2(PO4)3,0.06944804631249557
mp-569657,Sm(AlZn)2,0.0
mp-13041,Yb2C(NO)2,0.4252744239628594
mp-1001011,TaO3,0.13374265859375
mvc-15424,MgMn2O4,0.0744623307142902
mp-559253,La2Fe2Se2O3,0.0
mp-1025192,Ta4C3,0.1381531028571441
mp-867926,LiInPd2,0.0
mp-11536,NpRh3,0.0
mp-763453,Ca3V10O25,0.07027775105262357
mp-31312,Ga9Rh2,0.0
mp-19082,TiMnO3,0.0
mp-1098437,CeMg30BO32,0.15185105072187174
mp-763383,LiP4WO12,0.08140615361110459
mp-28788,Ba9(AuO6)2,0.0
mp-995194,KBaSiHO4,0.012584574444444385
mp-9546,Yb2C3,0.0
mp-1077545,CaC2,0.024802183333343386
mp-567998,ICl,0.0
mp-1027935,LaMg14Zr,0.0960336392187502
mp-1093631,BaHg2Bi,1.1939561174479167
mp-764015,Li4Ti3VO8,0.04406988315625515
mp-1096642,YMnAu2,2.2051782250000005
mp-1079993,ThAgPO,0.010581772897728214
mp-567160,Na4U(MoO4)4,0.05480318130000672
mp-504838,CsPS3,0.0
mp-865297,Ho2InAg,0.0
mp-1029851,Na2GeN2,0.0
mp-1078478,Mg4Si3,0.2201946358730172
mp-989526,Cs2KTlF6,0.0
mp-861931,LiPt3,0.0
mp-505584,LaMo5O8,0.1878618643452388
mp-1079406,Eu(SnPd)2,0.0
mp-775107,Li3Co2SbO6,0.11942091249999807
mp-771726,MnV4CoO12,0.0024093494444592523
mvc-5040,MnZn2WO6,0.09419067950000316
mp-1098928,SrMg30NiO32,0.03660415375000081
mp-850258,Mn6O5F7,0.08299263701390025
mp-771054,V3(PO4)2,0.05013446451923187
mp-774527,Na2Ti12O25,0.008634088076917124
mp-505682,Dy2Te,0.0
mp-617167,CoI(NO)2,0.3158429407341261
mp-3789,Zn2SiO4,0.0
mp-13978,Rb2ThF6,0.0
mvc-12321,CaSb2S5,0.17843865292968353
mp-504964,Rb2Na4Co2O5,0.0
mp-1072086,TaS2,0.003256128333340769
mp-28430,Na2TbO3,0.07126975527777812
mp-1876,SnS,0.04523679750000032
mvc-11893,Ba3Al4(Sb2O7)3,0.3271310457014662
mp-1039666,RbHfMg30O31,0.1302302994246043
mp-30360,TmAg3,0.13336444249999954
mp-567491,Rb4Ti2P6Se25,0.0
mp-31854,LiFeP2O7,0.03554211500000015
mp-18019,K3Sm(PO4)2,0.0
mp-705303,Li2MnP2O7,0.0245534871875126
mp-1026733,Mg14WC,0.21341522687500009
mp-1096133,MgVRu2,2.991578388958332
mp-1094013,Zn(GaS2)2,0.14620046071428305
mp-559343,KCu4(PO4)3,0.008648009124986089
mvc-6622,Mg(CuO2)2,0.0
mp-753689,Ba2Nb8O11,0.04822802047619135
mp-1073809,MgSi,0.2188286363888885
mp-25013,Ba2MnMoO6,0.0
mp-1080020,LiMoO2,0.1698408828125011
mp-866665,LiMgB3(H9N)2,0.0
mp-28933,Br2O3,0.0
mp-560107,SbAs3(S2F3)2,0.04592424541396145
mvc-1293,Ba2YMn3O7,0.028534332144239723
mp-765248,LiMn2F7,0.10008727954165676
mp-1099132,RbMg14MnO16,0.17136874036458405
mp-686382,Sr2La14Mg2Ga14O45,0.11448877520021128
mp-752620,Ba2YBr7,0.02084435250000194
mp-774193,La2WO6,0.0
mp-1094223,MgSn2,0.07644132583333363
mp-18851,NaCr(WO4)2,0.006623936874985858
mvc-5085,Mg3Fe2(Si2O7)2,0.092343570706519
mp-567957,Sm4MgRh,0.0
mvc-11840,V4(CuO4)3,0.07064762605263031
mp-559335,ZnAg2C4(SN)4,0.1204262068177142
mp-18606,ErGe2Ir,0.0
mp-771287,Mg2FeO4,0.09105769776786056
mp-685056,Cu9S16,0.5756879294666666
mp-765739,VOF,0.04399989583333408
mvc-9313,PrZn(AgO3)2,0.11446829014583405
mp-611150,Cs2NaFeF6,0.002961418999994692
mp-772472,LiFePO4,0.09389667071428498
mp-1094905,MgTi3,0.14239998999999948
mvc-6946,SnO2,0.1621714591666672
mp-560812,KU2(PO4)3,0.0
mp-866716,RbLiH12Se3N4,0.0
mp-979014,SrAc3,0.06434046187500009
mp-1028307,Mg14VB,0.3576192425000002
mp-19476,CsFe2P5O16,0.0
mp-780839,LiFeF3,0.07955741849999676
mp-1099042,CaMg14CoO16,0.03564289703125033
mp-559259,Ni2Hg2SF6,0.0
mp-771502,Li5Nb2Ni5O12,0.10110033343750313
mvc-4004,AlWO3,0.29341861274999914
mp-777606,Fe2O2F3,0.12068181455357685
mp-768137,Na2SnPCO7,0.05559857531249968
mp-1006151,Na3Pu,0.5476159870312491
mp-1100414,VSiRh,0.11191041333333374
mp-578796,KVCdO4,0.0
mp-1077906,CO2,0.05134830250000455
mp-1008530,AlVFeCo,0.02726930749999924
mp-3319,Mg(RhO2)2,0.011376519642856131
mp-744240,CaFe2P3HO12,0.004409171315788997
mp-19039,CdMoO4,0.0
mp-40668,NaCoP2HO7,0.0012599927777596776
mp-766149,LiV(OF)2,0.08207456916668221
mp-865260,Lu2ZnIr,0.0
mp-1068548,In2Se3,0.5220583423333327
mp-1094556,MgSb2,0.1918231338888892
mp-31992,LiMn2P5O16,0.007337668541690157
mvc-4985,ZnCu(SiO3)2,0.09518286141666454
mp-765282,Li16Mn15(CuO12)3,0.06833234228571605
mp-14223,Ba2YbSbO6,1.7484880500000148
mp-21020,Sr2UO4,0.1432841921428576
mp-1072580,CeSiPt,0.0
mp-624668,BaSb2,0.0014152483333331745
mp-743931,La5FeRe3O16,0.02881019660000561
mp-25188,Nd2(WO4)3,0.025187610588240258
mp-776407,LaTa2NO5,0.026023741666664442
mp-19002,TmNiO3,0.0013195175833322634
mp-764564,Li2Fe2OF4,0.08292317833333485
mp-33333,NaSbSe2,0.0
mp-697657,CaP4(HO6)2,0.0
mp-695119,Na3Zr2Si2PO12,0.005390396249987718
mp-566800,Cs5CaNi4F15,0.0
mp-560314,In2H10S3O17,0.0
mvc-12243,Ba2Fe2CuF14,0.0
mp-764365,W(OF)2,0.0006666799999983652
mp-866656,GdFeB4,0.0
mp-2147,SrGe,0.0
mp-6384,RbSO2F,0.0
mp-1079945,SrAs3,0.017702086249999915
mp-1037249,SrMg30CuO32,0.04823918523437865
mp-977207,Li2Mg,0.0240035433333341
mp-757560,Li3Sn2(PO3)7,0.07257875611111064
mp-568570,CsSnI3,0.003267802999999514
mp-1095519,Eu2In,0.0
mp-1093588,MgSnPt2,2.0793936437500005
mp-771489,Li2NiCSO7,0.06420773041666639
mp-849678,Li2Fe4OF8,0.08866113133333542
mp-20331,CuSbSe2,0.0
mp-771914,Ba3La2Cl12,0.04137273441176337
mp-775011,Li2NbFe3O8,0.010505108928568596
mp-32308,Ta2NiO6,0.0
mp-581602,ZnS,0.011068295000000285
mp-770535,Mn2P4O13,0.08805223592103761
mp-989589,LaMnN3,0.0
mp-11641,Ag2SeO4,0.0
mp-653120,Mn(GaTe2)2,0.011738379642856957
mp-865174,HfCdRh2,0.0
mvc-10379,Ca(MoO2)2,0.0940262728571426
mp-15577,Pr4Ga2O9,0.0
mvc-10018,LaCrCoO6,0.164686035138895
mp-998845,TlNiO3,0.2601635667083322
mvc-11084,CaMoF6,0.0
mp-556848,CaTa2Bi2O9,0.6794695707142893
mp-764954,LiV(TeO4)3,0.0396578894117674
mp-849311,MgSb2H2F14,0.0
mp-626643,Ca(HO)2,0.188353008
mp-558113,Ba6Nb2Ir(ClO6)2,0.0007104677355078692
mp-1017566,GePbO3,0.21798008933333346
mp-849790,SiH21C6N2OF5,0.11854745194444315
mp-8932,Cs2SiP2,0.0
mvc-28,Ba2Mg3Tl2(FeO3)4,0.3066342578260892
mp-31571,LiCoP2O7,0.03258216022727378
mp-18757,Sr2CdWO6,0.023866654499999918
mp-1026810,CeMg14B,0.28190823175781343
mp-557249,K2UCu3S5,0.001807743742422652
mp-541746,Mn3BO5,0.005113871388864766
mp-1072486,LaCo5,0.033029905760870726
mp-568725,Dy(FeB)2,0.0
mp-769608,Li4VCr3O8,0.006387936875001721
mp-1424,GePd,0.0
mp-1021163,LaMg6Ga,0.1424496529166639
mp-7281,Dy3Ni2,0.0
mp-768247,PtO3,0.07702018593750015
mp-1058853,PrAg,0.0
mp-772711,Na3SiBiBO7,0.026107611813183773
mp-28006,Ca(Cu2As)2,0.0035423807142862533
mp-3446,SrTm2O4,0.0
mp-31830,LiFeP2O7,0.021289443636364425
mp-694839,TaFeO4,0.03556150083332277
mp-31705,Li3Cr(PO4)2,0.029382058392707574
mp-672254,CaPdPb,0.0
mp-865000,HfScIr2,0.020109816249998858
mp-1076580,La5Sm3Cr6(FeO12)2,0.1206656408593787
mp-5177,LuSnAu,0.0
mp-607077,Ce(Al4Fe)2,0.0
mp-24152,HoH2,0.0
mp-721246,Sr6CoC2N7,0.0
mp-3895,Ho(SiRh)2,0.0
mp-974861,Mn2Co2O5,0.5218731040740785
mp-31899,Ba2MnReO6,0.0
mp-555387,BaSi2(BO4)2,0.0
mp-777466,Li2FeF4,0.024351000357143
mp-3345,Cu3AsS4,0.0
mp-568633,RbNaMo3O10,0.009685023708332352
mp-32011,Mn2NiO4,0.16063073015873552
mp-566298,Sr2UFeO6,0.00769970799999875
mp-770245,LiCrNiO4,0.08537881952380566
mp-567195,Ce2Ga12Ni,0.0
mp-11913,NaPr2IrO6,0.0
mp-767698,Li12MnNi3P4(CO7)4,0.04493239846154306
mvc-3000,SrMo(PO4)2,0.09336386291668043
mp-1093821,Sc2TlNi,2.2816624428125
mp-984785,AcMg3,0.022752347499999548
mp-985615,AlFe,0.8070934549999995
mp-571636,InCl,0.0018001151562501148
mp-1013524,Ca3N2,0.5112616037500004
mvc-12214,Cr3(P2O7)2,0.03648716240077654
mp-1096782,Ba2VFeO6,0.10029925624999693
mp-1099312,KMg6W,0.4303607712499997
mvc-15047,CaV3O7,0.00023388227271858847
mp-677151,YbTiCdSbO7,0.060476969034087176
mvc-11733,La2MgVO6,0.0
mp-11,As,0.0
mp-9854,YP5,0.0
mp-38103,NaClO4,0.004393259999998733
mp-850969,LiMnSiO4,0.0868030175072656
mp-715442,CoO,0.02006197750000016
mp-1094349,MgTi,0.2339003824999999
mp-565850,La2WO6,0.030600743194447944
mp-620032,Ti2Se,0.0
mp-1019551,BaNa2Mg(PO4)2,0.0047132164285716965
mvc-12662,MgMnO2,0.02885164812499585
mp-571382,Nd(CoAs)2,0.0
mp-631560,SrMnRe2,1.0646431849999995
mp-2390,YbP,0.0
mp-1035240,Mg14CdCuO16,0.0470956265625011
mp-27210,RbTlF4,0.0
mp-680298,Rb3Ta5O14,0.0
mp-721463,K2P2H2O7,0.053197672115397936
mp-569203,Tl3Bi2I9,0.008738896785714267
mp-504723,Ba2NiWO6,0.0
mvc-16627,Ca(FeS2)2,0.37436468071428575
mp-1077518,ErCu4Pd,0.0
mp-21298,NpSi2,0.0
mp-1098280,RbMg6Si,0.2753011988749998
mp-979,ZrSb2,0.0
mp-6075,Ba2Li(BO2)5,0.0
mp-767068,LiVSiO4,0.06356319008928413
mp-7366,Sr(AgSn)2,0.0
mp-1078748,Sr2TaInO6,0.0
mp-42022,Cs2RbZrOF5,0.007388931250003061
mp-762163,Li3TiMn2O6,0.06784137458333284
mp-771733,Li3MgV8O16,0.03470288870536109
mp-6912,Mn2Sb,0.2323270733333329
mp-559129,Li3Er(NO3)6,0.0
mp-1003313,Li2Mn3O6,0.04642663437500616
mp-569830,Te2PdBr6,0.0
mp-8680,Ce(BIr)2,0.0
mp-2086,PuS,0.0
mp-644271,LiHS,7.481125000019516e-05
mp-756648,LiNdO2,0.012116265937500259
mp-772955,Ba2LaCl7,0.011701475750001578
mp-559984,Rb8AlAu3O4,0.0
mp-632672,LiHF2,0.4960698850000007
mp-985558,Ce2US5,0.0
mp-1095667,TmAlPd,0.0
mp-1074429,Mg4Si3,0.21473636230158846
mp-1095712,Sc2BeTl,2.4738013442499995
mp-8969,Mg2Ni3P,0.0
mp-1069841,V2N3,0.09257803752400127
mp-566942,Zn3Fe2(SeO3)6,0.0
mp-976148,K2RbSb,0.011189544166668064
mp-1097428,CdSnPd2,1.6517258225
mp-867805,LiCa2Ga,0.0
mp-971944,SrMg3,0.07003162812499975
mp-721067,LiCaP3H8O13,0.036230667499999925
mvc-10351,Sb3P3O13,0.08908096763157937
mp-686745,Ba3LiTi5Nb3O21,0.016674761212124526
mp-6635,Ba2CaReO6,5.005199999974508e-05
mp-771031,Lu2TiO5,0.0
mp-684798,Ag2Te,0.033925463333336126
mp-567352,Ga(SbBr)4,0.015402554583333394
mp-1031781,CaMg6BiO8,0.3611048491145841
mp-780769,LiCu(PO3)2,0.10433284054165792
mp-771429,Li(NiO2)2,0.0566432025000001
mp-1076488,Sr6Ca2Fe3(CoO4)5,0.021829010590286302
mp-1072023,CrPb2,0.4881454549999997
mp-1014204,Sn5(S2Cl)2,0.04168615431818168
mp-1078828,OsN,0.3745655625599991
mp-867843,RbUTe3Au,0.0
mp-27369,RbGeCl3,0.0
mp-779273,Li3Fe(Si2O5)3,0.04602583139997751
mp-669699,Nb5Ni,0.21243660166666686
mp-753088,Ce5Gd2O13,0.034893378249995166
mp-23427,Ti3(BiO3)4,0.0
mp-28713,Na2Te2O5,0.0
mp-31961,LiMn2(PO3)5,0.0254610932608692
mp-13199,Zn3TeO6,0.0
mp-765007,VF3,0.0104651118749981
mvc-4996,Mg2TiWO6,0.10163927474999744
mp-1092251,Nd2CuGe6,0.039008124097223096
mp-861632,LiMnPO4,0.010409968928572157
mp-24011,CeHSe,0.0
mp-764368,Li2Mn3OF6,0.08044233083333285
mp-12804,SmAlSi,0.0
mp-721279,H3SNO3,0.015454539387009802
mp-774562,Cr3(P2O7)2,0.0020285788293268325
mp-865102,NaLaTl2,0.0
mp-19856,SnPt,0.0
mp-774263,Li13Ti28O56,0.006499106804108479
mp-866212,Yb2AgSn,0.0
mp-24075,Ho(HO)3,0.02520981607142847
mp-862263,DyAlAg2,0.0
mp-22587,Cd(InSe2)2,0.036128238571428106
mp-686618,YAl6Si30(N15O)3,0.06571828874117712
mp-866015,CaPrZn2,0.0
mp-999263,RhN,0.5960766213099999
mp-667377,SiO2,0.013080909642855687
mp-1097081,Al2FeTc,3.076741364
mp-637206,AlBiSeCl4,0.0
mp-569350,La5Sn3Br,0.0
mp-555510,Sr2YbRuO6,0.0
mp-1026525,Mg14NbB,0.3360019996874999
mp-21238,ThSi,0.0
mp-505508,V2Cu2O7,0.0070461577272755704
mp-735662,Fe4As10PbO22,0.0
mp-776331,Zr5N5O2,0.049890178333322766
mp-1093864,AlRu2W,3.755109310416666
mp-999339,NdNi,0.0
mp-619661,Pb3(IO)2,0.0
mp-867795,ScNbTc2,0.0
mp-1029249,TeMoWSe2S,0.0428166825000007
mp-8279,Ba(CdP)2,0.0
mp-972125,LiTb3,0.1858667937499998
mp-29744,RbMnSe2,0.024473285375000486
mp-1075902,EuCuO3,0.03558824793751203
mp-1008785,RuO2,0.19294501333333347
mp-762425,Li3Ni2(CO3)4,0.13103062145833455
mp-1028478,MoW3(SeS)4,0.03115174250000141
mvc-6346,Ca(WO2)2,0.491740579107141
mp-1078190,Er2Cr2C3,0.0
mp-866194,Li2MgCd,0.0
mp-18373,ZnSe2O5,0.0
mp-1078361,Fe2O3,0.2060860860000009
mp-849955,Li3Mn5(FeO6)2,0.1289976398957995
mp-1513,Co9S8,0.0
mvc-15604,AlCrO3,1.3377066304999996
mp-1069771,Rb2PdSe2,0.0
mp-12495,CsTbCdTe3,0.0
mp-973869,LaCdO3,0.41212214787499857
mp-1018146,GdCoC2,0.0
mp-504946,Nb2P4O15,0.009601747000028029
mp-23861,BaHCl,0.0
mp-764902,Li4Fe2Co3Sb3O16,0.05535375705356138
mp-771374,Li3Cr3GaO8,0.058223319185177765
mp-624,B6As,0.0
mp-686710,NiH6C2(SN2)2,0.10177029673684412
mp-771793,Li4Cr3CuO8,0.014812106562500203
mp-18267,La2Cu(SeO3)4,0.0
mp-990558,EuTe,0.0
mp-652282,P(W3O10)2,0.0032061817591362285
mp-1079510,Lu2InNi2,0.009057411999999765
mp-556940,MgSiO3,0.11296197650000205
mp-554527,H12C4INO3,0.3811969613690476
mp-845,Cu5Sn4,0.011824410555555607
mp-571188,Pr3Sn,0.009981836666668187
mp-988940,AlAs,0.2766526699999998
mp-1028238,Mg14AlMo,0.13311624416666668
mp-862982,Ag2Br3,0.019987741000000003
mp-561270,SnH4C2NO4F,0.05245749576922787
mp-767719,Li4Ti2Mn3Ni3O16,0.043677743601186585
mp-685149,K5Sb4,0.050808953333332685
mp-863286,CoP3NO9,0.3904773002891721
mp-21723,SiPbO3,0.0
mp-571132,LiMg10AlH24,0.0080138341666669
mp-1027594,MoWSeS3,0.02836035208333243
mp-770159,Sr7W4O19,0.0
mp-1022089,Mg6CuSi,0.1402531392499995
mp-1006882,CdC,2.10242208375
mp-554947,NaSiBO4,0.007823356547630667
mp-1078879,LiPrSn2,0.0
mp-979028,Sm2Mg,0.016481389166666194
mvc-15835,ZnWF6,0.0
mp-1026395,Mg14TiW,0.16218055145833346
mp-961690,VGaNi,0.6011182322222242
mp-1027760,Te2Mo3W(Se2S)2,0.07814293166666797
mp-11446,Tb,0.14334022666666613
mp-22662,TiGaPt,0.0
mp-6930,SiO2,0.01092275333333248
mp-1080260,CeSe2,0.5312781662500008
mp-1028393,Mg14CdCo,0.0706555208593751
mp-11714,SiC,2.1319583333401223e-05
mp-21040,Zr2Fe3Ge,0.0
mp-541013,TiI4,0.0
mp-2499,BaSi,0.0009132799999997944
mp-1097322,Li2GePt,1.9205571449107144
mp-669496,PtI4,0.0
mp-556872,RbCO2,0.00685151437500231
mp-1030195,Te3MoWS,0.07082431479166472
mp-4618,Rb2SeO4,0.0
mp-753990,BaY2F8,0.07396554000000144
mp-3055,NdB2Rh3,0.0