mpid,formula,e_hull
mp-31248,Ce2Te4O11,0.0748743189338219
mp-867190,Pr4Ge7,0.0
mp-5773,BaRuO3,0.0
mp-541912,ZrBrN,0.0
mp-9806,KGd(CO3)2,0.0
mp-14636,Rb2NbAgS4,0.0
mp-11765,Ti5Se4,0.0
mp-1094711,CeMg5,0.12952836166666692
mp-1033034,Mg6AlCrO8,0.242884209375001
mp-780377,Lu2P4O13,0.02474636743421144
mp-770979,Li2AlVO4,0.02526102843750256
mp-12613,LaNiSn,0.0
mp-618571,KVPbO4,0.0
mp-23363,NaAlCl4,0.0
mp-1023365,Mg6AlC,0.3459485544531251
mp-1097636,TiZn2Pt,2.4864072799999994
mp-982885,KCaO3,0.4233904570000009
mp-771800,MnSn3(PO4)4,0.07183846874996558
mp-667343,Re2(HgO2)5,0.0
mp-684747,Bi2O3,0.03602204656249963
mp-567440,Ho2Si3Rh,0.00010984625000087789
mp-11437,Er3Rh,0.0
mp-753455,BiOF3,0.0802746632500071
mp-567353,MnSiNi,0.23668527583333265
mp-866299,ErTaOs2,0.0
mp-1080350,CeSe2,0.1033372123611116
mp-771506,Li5Co2Cu5O12,0.08277906666666546
mp-762775,Li2Fe2Si2O9,0.10551210708333604
mp-1033624,RbMg6BO7,0.662418109969698
mp-1095591,Tm3(CuSn)4,0.0
mp-999287,PrRhC2,0.06689246125000015
mp-774076,Li4Mn3Fe(BO3)4,0.0053703910416667
mp-7155,CsErZnSe3,0.0
mp-12615,TbBe13,0.0
mp-762542,Li4Ti3Cr3(SbO8)2,0.050858784129471424
mp-779031,NaV(PO4)2,0.04398719215277147
mp-566704,RbMn6As7O24,0.0
mp-782712,Li3V4(OF3)3,0.08804239096492239
mp-769524,Li11Nb4(Ni3O8)3,0.07749744671875193
mp-777317,Mn7Fe3O20,0.09930460393749208
mp-771739,Li3Mn(SbO3)4,0.06378256445833319
mp-464,HoSe,0.0
mp-555743,LiZnPO4,0.0
mp-621502,Na2FeNiF7,0.00013021363634813102
mp-755391,BaNa2O2,0.061394075999998236
mp-1008490,BiI3,0.5987465175000002
mp-7581,MoSe2,0.00013472833333327827
mp-764370,LiCoF3,0.0842151753333269
mvc-5183,Ca2AlNiO5,0.01115254718253933
mp-25004,BaNdMn2O6,0.03331022283328089
mp-11734,Sr2MgReO6,0.0044319210000001155
mp-1068,CuS2,0.005079797500001426
mp-21906,U20Si16C3,0.017271764190700978
mp-1030577,Te6Mo3WSe2,0.042414135833332985
mp-28580,Y2NCl3,0.0
mp-29072,Nb2SiTe4,0.0
mp-778036,LiCr2(PO4)3,0.09398773465278598
mp-1097459,Rb2AuBr,0.4139074075
mp-761624,LiFeSi3O8,0.05947095692306004
mp-31034,ThF4,0.0
mp-1078705,SmFeSb2,0.09446283999999938
mp-1087511,UFeAs2,0.0
mp-768347,Li8NbS6,0.09390681837500292
mp-974635,Rb3Ca,0.18422723000000008
mp-546684,PdSeO3,0.009633047000003891
mvc-12789,ScMo3O8,0.2914195562152724
mvc-3476,AlAgO3,0.27897278795836034
mp-697774,Li2Cr(PO4)2,0.07036955341574558
mp-681,EuZn2,0.0
mp-975591,NdHf,0.2841452787499996
mvc-2276,Mg2Mn9O13,0.09054064333333044
mp-604321,Rb,0.006155567500000014
mp-15958,Nb3VS6,0.0
mp-1076831,KNa(MoO3)2,0.10321408799999696
mvc-11740,Ca(VS2)4,0.15134735807691954
mp-554925,BaVZnP2O9,0.012248330535713059
mp-540064,LiCo(PO3)4,0.06882242472222178
mvc-9564,CaSn2(PO4)2,0.05796451358974687
mp-866038,YbGdHg2,0.0018494699999997977
mp-2768,Ba2As,0.0794116025641034
mp-571060,In9Pt13,0.048130694204545854
mp-779226,Li5Mn6(BO3)6,0.03766103126188547
mp-605374,CsU2H3(C2O7)2,0.04425420120659318
mp-765038,LiMnOF2,0.07620597850001065
mp-974038,Ni2W4C,0.0
mp-704123,CrF4,0.0
mp-566252,Ba2VP2O9,0.0
mp-1021972,Mg6NiBi,0.13108500874999995
mvc-552,Sr2Y2W2O7,0.4962337576923126
mp-764830,VOF,0.003021422222224679
mp-541155,VS4,0.0
mp-773247,Li3Fe5O12,0.12780137481250176
mp-705087,Rb3CoNCl4O3,0.0
mp-28432,Tl3Cd2I7,0.0
mp-763087,FeOF,0.057277713055555075
mp-755376,Er2TeO6,0.0011509481481457586
mp-863745,RbSrCO3F,0.0
mp-625894,Ba(H2O3)2,0.04598801590908952
mp-23230,PCl3,0.0
mp-1027877,Mg14CrFe,0.2390957100000004
mp-8308,Ca3Ni7B2,0.0
mp-763939,VOF,0.05543252277777898
mp-763924,Li4Fe3CuO8,0.02489585843749964
mp-560320,KBa2(PO3)5,4.062402173410362e-05
mp-7977,CsSmO2,0.0
mp-15322,ScCuSi,0.0
mp-571069,Ba3(CdSb2)2,0.0
mp-23176,SbCl5,0.0
mp-540707,Cs2Sn(GeO3)3,0.0
mp-625873,Ba(HO2)2,0.1039540257142848
mp-771499,LiFePCO7,0.06679989812500331
mp-14526,Na4Hf2(GeO4)3,0.0
mp-147,Se,0.026303711406249874
mp-636978,KCuCl3,0.020444151500002228
mp-30710,Pr2Zn17,0.0
mp-1079509,NaTi2HO5,0.12443406125000145
mp-1093756,CrSnRh2,2.7343286425000004
mp-972908,La3Dy,0.029948883333332788
mp-21868,Ba2Lu(CuO2)3,0.02166517046875516
mp-763555,Li2V(PO3)4,0.07908087461653858
mp-10700,MgNi3C,0.0
mp-18829,Sr2ZnMoO6,0.025230981500000915
mp-698622,Sr10Mn5Zn9(AsO)10,0.2338655407146213
mp-1033703,LiYMg6O8,0.061331745937501125
mp-672385,UNiSn,0.8228785958333331
mp-770370,V3BO6,0.0071454558749994845
mp-690244,Lu4V4O13,0.22236437261905093
mvc-8147,W3O8,0.37208429961538414
mp-20952,TiNiSb,0.0
mp-752678,AgAuO3,0.4362437194583357
mp-25935,Li3Ti2(PO4)3,0.06256261681309105
mp-1018891,PdCl2,0.011780776111111724
mp-3419,RbAuF4,0.0
mp-850171,Li2Mn3(BO3)3,0.07163198465684317
mp-764320,Li5MnOF5,0.062023067499999314
mp-6285,BaNd2Ti3O10,0.0012280484375004619
mp-1034177,RbMg14BO16,0.36698904890625
mp-1073909,Mg6Si5,0.17921578606060606
mp-767329,Li3TiCr3O8,0.043941171333329976
mp-18925,Li6CoO4,0.0
mp-19315,Sr2MnWO6,0.0
mp-1095814,Zr2ZnPt,3.2319291112500013
mp-769425,YFeGe2O7,0.0
mp-744205,K2Cr2AsHO10,6.914833333393489e-05
mp-715178,FeO2,0.14480414395833294
mp-615626,Na5Mn3F14,0.014120881931805053
mp-684676,Al2S3,0.1360208539166674
mp-1039148,CaMg,0.01118792125000012
mp-763466,LiP4WO12,0.02425564513888201
mp-764358,LiFeF3,0.021173167999996245
mp-771517,Li4Mn3Cr5O16,0.01811206196429449
mp-24956,ErFeO3,0.0026997123749996628
mp-1096336,CaYAg2,1.9254086324999995
mp-560173,KAlSiO4,0.0017479176785757387
mp-1076706,SmCuO3,0.1366287004999771
mp-768004,MgFe11O18,0.060671580895835575
mp-764853,Cr(PO3)3,0.03577350615384667
mp-540997,FeTeCl7,0.0
mp-11296,ErCd2,0.0
mp-22709,TaNiB2,0.0
mp-5318,MnCoSb,0.009492970833334443
mp-532294,Er2CdSe4,0.03599164654761822
mp-767209,Li8Nb(FeO4)3,0.09460732104166336
mp-1097712,Na2W2O5,0.22482877138889013
mp-23237,BiF3,0.0
mp-545712,LiUO3,0.20866612099998072
mp-1068359,Cd(BrN)2,1.9638694210480003
mp-866952,Ca5Sn4S13,0.4040796038068182
mp-765834,Li6V2OF11,0.01642455892857786
mp-1021790,HfMg6Ni,0.2043546143749997
mp-570492,CdI2,5.718278632493856e-05
mp-721604,CuH4C2S2N2Cl,0.1128058131835008
mp-754311,Mg(ReO4)2,0.0
mp-761533,Li6Cr3Ni(PO4)6,0.05070033287496045
mp-622980,MnTePd,0.2346516350000014
mvc-10467,ZnCu2(MoO4)2,0.07283920615384698
mp-744710,CoPH3O5,0.3609574096249979
mp-626865,H2WO5,0.08099035640625019
mp-7645,KAl(SO4)2,0.0
mp-2180,HfSb2,0.0
mp-1096456,ScZn2Cu,1.939918465
mp-766034,Sr5(IrO3)6,0.04143169685344805
mp-733840,GaH12N3(OF2)3,0.19727266330960005
mp-555970,NaTl2MoF6,0.0
mp-1068431,Yb(ZnSb)2,0.0
mp-864669,NbGeRu2,0.0
mp-867264,Re3Os,0.0
mp-1095611,INO4,1.4487827460555565
mp-4001,BaTaS3,0.0011466860000002301
mp-767393,Li15Ti11Nb5O42,0.025894677260264842
mp-1099873,CaCuO3,0.1606175751249994
mp-30884,YZn3,0.0
mp-768505,LuGaO3,0.0
mp-771417,Na2CoSiCO7,0.0596229177083325
mp-19820,TmPb3,0.0
mp-1094293,Sr3Mg,0.08860732593749998
mp-675299,Ca2SiO4,0.10553461785714367
mp-700144,SrV2(NiO4)2,0.0013709082211530446
mp-864756,Yb2MgIn,0.0
mp-637614,Zn3(InS3)2,0.0694139453409095
mp-706654,HS3N,0.0781205842441377
mp-555625,C2SClO4F3,0.20923765465908686
mp-1094313,Sr2Mg,0.15158527458333326
mp-1095615,CeAsS,0.007430235833333577
mp-1027950,YMg14Ga,0.07755592104166675
mp-1098345,HfMg30SnO32,0.15497351761718736
mp-24860,Co2P2O7,0.011756984545446159
mp-607917,La21Fe8Sn7C12,0.0
mp-1095805,Zr2RePt,3.832667973950002
mp-776427,ZrO2,0.0416060287500013
mp-585236,LiCoPO4,0.05561568398809413
mp-546551,Na4CO4,0.1553367022222245
mp-1080354,CeSe2,0.5568894020833328
mp-675693,Na2CdO2,0.0
mp-1028130,YMg14Cu,0.05911818531249757
mp-1094497,YMg,0.1328334583333337
mp-756422,Li4CuSi2O7,0.04124012785714104
mp-22512,Sr2In2O5,0.02931774416666855
mp-975110,RbMg3,0.2514405175000001
mp-1080528,U3Al3NiRu2,0.09920535222222072
mp-764018,Co6O5F7,0.09007153131944445
mp-1098788,NaMg30FeO32,0.051252059531250005
mp-775528,Na2MnO2,0.03500216866666683
mp-676988,Na3HoTi2Nb2O12,0.010855129916659934
mp-767920,Li3NiPCO7,0.05506322999998936
mp-30139,BeBr2,0.0
mp-1095854,MgZrAg2,2.1637524725000006
mp-773304,Li3Nb2CrO6,0.08959500083333616
mp-867507,TaGaFe2,0.0
mp-775589,Ti3CuSn2(PO4)6,0.04539014483796412
mp-754846,Ce2Nd2O7,0.04838970931817777
mp-1097455,TiMn2Nb,3.5656327425000014
mp-540259,Li2V(PO4)2,0.03053190019230545
mp-1075413,Mg5Si6,0.21308848853535656
mp-698577,La6Mn5O18,0.009119674084049123
mp-771606,Li2Cr3SnO8,0.07047448376984189
mp-763516,LiCoSiO4,0.07830173849998623
mp-763845,V3O7F,0.05066195204545743
mp-778218,MnFe3Sn2(PO4)6,0.07822807097223272
mp-770250,Li24Mn7Cr5O36,0.01046553013888829
mvc-2528,Ba2TlSb2O7,0.3279104283333316
mp-1094598,Li3Mg,0.0
mp-862604,Re3Ni,0.0
mvc-5059,Ca3Si4(MoO7)2,0.0906737219565219
mp-11800,Co3Se4,0.021861272857143454
mp-764934,Na(NiO2)2,0.0024551342460368275
mp-562012,K2Th(MoO4)3,0.05606904350694286
mp-1037352,Mg30VZnO32,0.013247803281250192
mp-541626,K3Nb3Ge2O13,0.034855259365080826
mp-631465,YRhW2,1.0656922425000008
mvc-15157,Y8Cu3(SiSe7)3,0.054834927659225485
mp-1074849,Mg7Si4,0.22702152318181845
mp-6753,Ca5Si2C2O13,0.005117419431821979
mp-559937,UTe3Pb2O11,0.0016817709436303119
mp-20228,MnGaNi2,0.005142542499999792
mp-770485,CrGaO4,0.10657004489584933
mp-1073451,MgSi2,0.2802217817592618
mvc-2975,Ta2WO8,0.2785103268181821
mp-767199,LiMn3OF5,0.06881506199999965
mp-767104,Li2Cr(CO3)2,0.07996861426136803
mp-649516,Te6Mo(OF5)6,0.012941051686034656
mp-10961,La5Si3,0.0
mp-10985,RbCu3S2,0.0011510650000010616
mp-1026646,NaMg14Cd,0.03606949406249993
mp-867269,LiHo2Os,0.0
mp-22983,LiAlCl4,0.0
mp-1038513,Mg30CrBO32,0.1151333335546898
mp-9177,Y2Al3Si2,0.0
mp-1020633,RbMgBO3,0.0
mp-554808,SnH22(Cl3O5)2,0.0
mp-771248,Na2Ge2O5,0.012468583928572308
mp-565839,LaWClO4,0.02197926833333419
mp-765896,LiV3F10,0.08668452607142996
mp-12718,LiPrSn,0.047402897272726285
mp-1025275,Ce2AlNO3,0.09949264749999998
mp-541280,BaLaGaO4,0.007536963309529909
mp-763637,Li4Fe2SiO7,0.07134465785713484
mp-861269,Cd2PbO4,0.0
mp-1074518,Mg4Si3,0.193422470873017
mp-675244,Yb(NdS2)2,0.0015252749999996595
mp-1094739,LaMg,0.02231034499999973
mp-706367,KCaP3H4O11,0.04184126887500117
mp-781060,Mn2OF3,0.04879735395833862
mp-676643,Ba2NF,0.05117258937500058
mp-20017,K3Ir(NO2)6,1.8474462540098484
mp-643359,Rb2Sn(H2N)6,0.01213436583333305
mvc-899,MgTiP2O7,0.1896213299328835
mp-27122,LiSn2(PO4)3,0.003414390972221959
mp-1078491,LaFe2AsN,0.0
mp-850995,Na4V2C4SO16,0.0
mvc-12218,Ca(FeO2)2,0.10138972964285743
mp-1024972,FeNiGe,0.1557128770833316
mp-773408,Na5LiMn2P2(CO7)2,0.01374660871795097
mp-28376,CuAuF5,0.0
mp-706531,Ge3Ru2,0.005586213250001748
mp-1097508,LaZrAu2,2.515916430625001
mp-572929,U2Cu2As3O,0.0
mvc-11434,CaFe3P3O13,0.0
mp-1097621,LiMnAu2,1.3373616212500004
mp-975531,RbCr5Te8,0.0
mp-581760,Yb2In,0.008100767500001549
mvc-16058,MgV4O10,0.05171575649998417
mp-542675,Na(RhO2)2,0.0
mp-29912,Sb2MoSe,0.0
mp-1025113,DyInPt4,0.038794658749999655
mp-5670,LiTi2O4,0.0
mvc-9872,LaMgCrAgO6,0.19148870237500126
mp-600016,SiO2,0.011004784583333205
mp-684978,Sc29S42,0.2329628921478877
mp-13534,LaZnNi,0.0
mp-763591,NiSn(PO4)2,0.03504414569444325
mp-768486,Sb2(SO4)3,0.006694801470580103
mp-1073115,Mg2Si3,0.19147951511110994
mp-973241,Sm3Ni7B2,0.0
mp-776138,LiFeF3,0.06124749849999666
mp-27583,Sr2P6O17,0.0
mp-762303,Li2CrSiO4,0.09107876171875427
mp-1097438,Hf2FeCo,3.6498382634375
mp-945194,Na5(SiO3)6,0.2644028367888165
mp-6676,Sr2HoRuO6,0.0
mp-1026486,LaMg14Ti,0.1244516694270832
mp-1099246,Mg3BiO4,0.5475015492708337
mp-849996,Li3Mn2(P2O7)2,0.032636722989130014
mp-778074,Mn7Cr(PO4)12,0.06734509218748208
mvc-10393,Ho(WO3)2,0.12207204458334076
mp-556605,ZrO2,0.022630735833336857
mp-397,KCd13,0.0
mp-580327,Gd3(AlNi3)2,0.0
mp-706223,La4TiMn5(PbO9)2,0.04170847450001602
mp-975997,NaLi2Pb,0.019678918750000385
mp-982393,Pm2ZnAg,0.0
mp-680329,K3As7,0.0
mp-706248,Ca6Pr6Mn11CrO36,0.0
mp-676250,Bi2Te4Pb,0.0008018085714289747
mvc-15779,TaF5,0.07606013666666732
mp-773772,NaLi5Mn2P2(CO7)2,0.046928638589743166
mp-704325,Gd4Mo7O27,0.016365344703940462
mp-22227,ZrMnSi,0.0
mp-961655,YCdGa,0.5430863716666665
mp-10464,CaF2,0.05216779833333264
mp-980760,SmNiGe2,0.0
mp-34501,Fe2CoO4,0.034051045714283745
mp-1095609,TbGaPt,0.00136815499999976
mp-762188,Li2VP3O10,0.062001709270842476
mp-861559,TaFeO4,0.02767639194444449
mp-862714,Be3Ir,0.0
mp-771710,Li3Zr4(PO4)6,0.05706631483461424
mp-773588,Sc6N2O5,0.022874069230768512
mp-569391,ZrCl3,0.06378837000000015
mp-23309,ScCl3,0.0
mp-680235,CsSbTe6(OF5)6,0.0012044154958639195
mp-743569,MnH6(OF)3,0.00017402692307655343
mp-6643,BaDy2ZnO5,0.015489731018515585
mp-680477,Al2RhC4Cl7O4,0.16901561027777667
mp-1078377,LiNbO3,0.020311412999999945
mp-4264,K2S2O5,0.05640934115941931
mp-777733,Li5Mn2Fe17O32,0.04418520419642746
mp-1019800,K8N3O,0.55399399125
mp-560239,K3Ti3(PO4)5,0.0016642719758106495
mp-36800,MgTaN2,0.03733846708334099
mp-643794,HSO3F,0.6038806872916647
mp-1066856,AgO,0.0029975350000013283
mp-1096454,Ti2PtW,3.807540869375001
mvc-3612,Mg3Si3(AgO6)2,0.20108830729166627
mp-686015,Ca3(PO4)2,0.5670469653846215
mp-764201,Li2V3O3F5,0.07591938279916821
mp-1065290,NdRh3,0.5142638791666663
mp-569200,Eu(Al2Fe)4,0.0008321975961509409
mp-974966,Rb3Lu,0.6162823850000003
mp-770623,Li4Ti2Mn3V3O16,0.07143982153569263
mp-759985,Bi3O2F5,0.02861971575000322
mp-22582,Tb3Mn3Ga2Si,0.1342747016666701
mp-4500,ZrNbP,0.0
mp-11621,ZnNiSb,0.0
mp-1095446,RbPO4,0.2011698385416673
mp-862763,Pr(Al2Cu)4,0.0
mp-1079201,BC2N,0.8872194137499996
mp-31114,Ho3GaO6,0.0042760098499972105
mvc-8656,MgMn(Si2O5)2,0.06191975398437144
mp-775211,Ho2WO6,0.0
mp-569006,Sr(AsRh)2,0.0
mp-861603,Li2SiNiO4,0.01650959562499921
mp-704540,LiMo2(PO4)3,0.006375840972197011
mp-766847,WOF3,0.13564762850000633
mp-1007961,CrInCu2,0.19255517421052648
mp-1033892,Mg14NbCO16,0.3484555232213529
mp-977547,MgZnRh2,0.0
mp-771582,Fe(SO4)2,0.0584870972537912
mp-18720,Mn2CdO4,0.0
mp-763995,Li5CoO3F,0.1329304158750011
mp-765476,Y13Ho3O24,0.0006036466710508392
mp-862872,PmAgAu2,0.0
mp-531811,Ho2CdS4,0.061841668142857735
mp-764499,Na3MnO3,0.03075354535714325
mp-1079296,HfAu3,0.0
mp-1079421,UHg3,0.19946283500000028
mp-773303,Mn5NiO12,0.044852446597221984
mp-1031818,Mg6MnNiO8,0.03192448125000258
mp-777201,LiNiBO3,0.07516691541666809
mp-1444,CaCd2,0.0
mp-1078108,Mn2B4Mo,0.012303072857141828
mp-772005,Li3V4NiO12,0.06358675566670513
mp-757074,BaCa2I6,0.029012872361111164
mp-1077209,TmCu2,0.0
mp-8377,TeO2,0.011496954583326335
mvc-1357,Ba2AlFe3O7,0.1918163293452544
mp-27359,CsScCl3,0.017000576666665882
mp-684042,Li3Bi2(PO4)3,0.047233625250003186
mp-763909,V6O11F,0.0378628416666551
mp-752637,HoBrO,0.02937542166666596
mp-1096003,BaLi2Tl,1.3192091835416666
mp-21391,InAs,0.19702778
mp-766751,CoBO3,0.08741055918750718
mp-779217,Tb2Zr2O7,0.050651067159090964
mp-684709,K3B17,0.15898967441666834
mp-775184,Sc2(PO4)3,0.0810735721691227
mp-17621,CsReO4,0.0
mp-1026585,Mg14SnW,0.14579167437499985
mp-10301,Sr2ScIrO6,0.0
mvc-10363,WO2,0.3406374744444438
mp-571436,SnI4,0.01934307375
mp-704305,V5O9,0.014884116785713887
mp-972898,Sc2GaAu,0.007240511250000027
mp-10678,AuSe,0.2476666674999999
mp-866191,Li2YbSi,0.0
mp-1035311,Mg14CrCuO16,0.049900789687500335
mp-550566,EuBi2ClO4,0.0
mp-11192,TaSi2,0.0
mp-11784,LaYbSe3,0.1943766070000006
mp-1032102,Mg6CuSiO8,0.3869335392187505
mp-31465,Ho5Bi3,0.0
mp-22724,CeZrF7,0.0
mp-1037342,Mg30TiZnO32,0.0552898970703124
mp-849066,FeS,0.25962504500000083
mp-17455,K7Ta(SO4)6,0.0
mp-20194,CeO2,0.0
mp-557481,Sr4RhO6,0.0
mp-976744,LiEr2Tl,0.0040083900000000856
mp-640041,NbZn16,0.004122004705882532
mp-21351,Dy2In,0.0
mp-756235,Ba3SrI8,0.007475262604167199
mp-1020613,Rb5GaO4,0.0
mp-1028196,RbCaMg14,0.15905396468750022
mp-775654,Li4V3Sn3(TeO8)2,0.08797072457907884
mp-645295,Na4CO4,0.3058774188888904
mp-1096650,Ti2NbZn,3.19311901
mp-772700,LiCrPO4,0.09239729345238246
mp-759001,Mg2Cu2P2(H4O5)3,0.01588396306817863
mp-1026876,Mg14CdCu,0.046896072187500026
mp-1095778,SrPbAu2,1.34781550625
mp-1097125,In2SnHg,0.92262498625
mp-19443,WO3,0.0001825724999982015
mp-11009,CaC2(SN)2,0.08650277623326641
mp-4497,Si2N2O,0.0
mp-1021277,LiMg6Sb,0.08494377958333342
mp-601241,Na3YH12(CO5)3,0.015682680294112572
mp-1078873,Mn3Ge,0.07353056124999924
mp-8382,CePO4,0.0
mp-767567,P2WO8,0.005100998863650119
mp-1038455,Mg30BiBO32,0.17578840487630298
mp-707762,K2CaH8(N3O)4,0.046206856566914034
mp-773439,Li3FeOF4,0.07362653901234495
mp-1017540,ZrCd,0.0
mp-650015,P6N7Cl9,0.0036861523181821454
mp-1021282,NaLiMg6,0.060939339374999964
mp-27771,Nb3Br8,0.0
mp-772625,Na2SnBAsO7,0.07774276067708108
mp-13061,Y2O3,0.07125462999999854
mp-780818,TiVO4,0.09533943208331408
mp-780320,LiMn3(BO3)3,0.09530768735675643
mvc-16547,Ca2FeMoO6,0.0
mp-775737,LiNi9O10,0.0
mp-18037,LiNbZnO4,0.0032433117857140203
mp-541347,Er2Au5F21,0.0
mp-579518,Dy5Sn11,0.0019653909375003664
mp-557675,K2Co(SeO3)2,0.0
mp-556357,Ni18Bi3AsS16,0.014742229141993413
mp-27288,RuXeF7,0.0
mp-1079170,NaZnBr3O5,0.9967398131666684
mp-1077466,CaBi2,0.0
mp-758094,Ce6Y2O15,0.016979435652174857
mp-558980,Er3CuSiS7,0.0
mp-558931,SiO2,0.2620239251388874
mp-20960,In2NiS4,0.11386294761904647
mp-1098010,Li2Eu5O8,0.012730663499999295
mp-1099244,Mg3WO4,0.5382326583333326
mp-776239,Zr2N2O,0.09860228200000164
mp-973295,Mg5Hg,0.03163022458333353
mp-776197,Li4Ti2Fe4(CoO6)3,0.07800309202044442
mp-28122,LiGdCl4,0.0
mp-720469,H6Os5Pt2(CO)17,0.23047867526595844
mp-1068518,TiPbO3,0.040320775999999725
mp-853248,LiVCrO4,0.0848577610118948
mp-704942,Li2Cr(PO3)5,0.04427454887681215
mp-697108,K3HRhC5N5O,0.10194811290364393
mp-560121,H5CNO3,0.0
mp-15362,Li3Nd2(BO3)3,0.001955445441176096
mp-568664,CaAgBi,0.0
mp-21201,LaGa3Pd2,0.0
mp-1096398,Zr2FeCo,3.409732319999998
mp-1028259,CeYMg14,0.057312016250000486
mp-774732,Li5BiS4,0.06340699999999799
mp-764278,Li3MnF5,0.09958637833333306
mp-1006352,Er2Co3Ge5,0.0
mp-23505,K2TeBr6,0.023133055555555337
mp-1037756,YMg30NiO32,0.0601564044531262
mp-1026549,BaMg14Sb,0.18822709290178508
mp-762116,LiCu4(PO4)3,0.07218864000000735
mp-28130,Nb(PS4)2,0.007447367499999301
mp-569421,Hg9P5I6,0.0
mp-22678,Ce2Sb,0.0
mp-1096363,Sc2AgPt,2.41802324625
mp-4604,Li7VN4,0.0
mp-777229,V4O7F5,0.024986487986114803
mp-1094712,SrMg,0.5685301443749999
mp-23843,LiHSeO3,0.0
mp-28978,Ba2S3,0.06377210099999875
mp-780649,V2O3F,0.018236617500004826
mp-557917,SbI(OF4)2,0.023733436145831455
mp-29279,CuClF10,0.0021927445833362924
mp-1073367,MgSi2,0.2734332321759281
mp-752699,LiAgF3,0.04803300099999897
mp-706550,Mg3Mn3(BO5)2,0.014738658333315337
mp-541806,Rb4Nb11O30,0.0
mp-565600,Mn3Si(O2F)2,0.0
mp-540787,K3V5O14,0.0
mp-3872,Mg(AlS2)2,0.0
mp-1034694,HfMg14SiO16,0.27879352507812794
mp-779269,LiMnF5,0.06521413122024368
mvc-322,Sr2YAlCr2O7,0.06974890643963327
mp-752910,Na3BiO4,0.03662280937500029
mvc-9181,ZnCoBiO5,0.06561224816611677
mp-723034,Na2Mn(H2N)4,0.1924941212777762
mp-675757,Ba2As6O11,0.6713797381578903
mp-2090,FeCo,0.0
mp-573390,Np2Si4Mo3,0.0
mp-769499,LiLa8V8O32,0.08300963668367523
mp-2930,Mn3ZnC,0.03948824163043607
mp-25764,Mn3H2Se3O10,0.0
mp-755287,Ca3CdO4,0.0
mp-585388,Mn4(PO4)3,0.06357847407893225
mp-757603,Na13Ti24O54,0.01585431978026719
mp-682548,Cs5Te3H4NCl18,0.0
mp-8962,Rb2HgF4,0.0
mp-1128,SiIr,0.0
mp-761495,Li2Ni(PO3)4,0.06641672899123474
mp-770153,Li3Fe2P2(CO7)2,0.0432534573505432
mp-862690,Ac,0.0
mp-19886,ThSnPt,0.0
mp-1027863,Mg14ZrGa,0.06730760890625033
mp-1077295,YbAlGa,0.06611761583333252
mp-10422,NaAuC2,0.41388584666666617
mp-744268,CsFeH4Cl3O2,0.0
mp-565597,Cu3P4S4I3,0.0
mp-755647,CaPt3O4,0.06688465687499967
mp-30743,TmIr2,0.0
mp-779895,LiCr(PO3)3,0.07313594680641344
mp-78,Ge,0.2316379700000004
mp-776205,Hf2N2O,0.09520856549999657
mp-772141,Ba2LaI7,0.024990947250000062
mp-1077017,HfV2,0.028809908333332857
mp-560965,K4Mn(AsS4)2,0.032429473444445016
mp-769876,TbNiO3,0.0
mvc-16061,MgV4O10,0.08943371316664894
mp-1080165,TeMoWS3,0.0610517150000005
mp-642660,Mg2CoH5,0.0
mp-771554,FeCo3O8,0.1157687741145832
mp-23307,NbCl5,0.0
mvc-7891,CaNiBiO5,0.19546683187500147
mp-1027304,Te2Mo3WS6,0.05997811083333283
mp-6289,Ba2Ti(GeO4)2,0.0
mp-1027140,MoW3(SeS)4,0.031697027500000814
mp-1006246,CeSm3,0.08203711312499973
mp-684956,Tl2O3,0.13429238149999725
mp-24694,Zn(H2N)2,0.0
mp-705540,NaMn2Mo2H3O10,0.25619782659721224
mp-5778,AlVFe2,0.0
mp-703305,Na2PHO4,0.0
mp-1098909,Mg30NbCoO32,0.07071912999999698
mp-683952,SiO2,0.7251004684722222
mp-1029602,Sc2(CN2)3,0.0
mp-22688,CuSeO3,0.0111273432499992
mp-15697,Sr2As,0.07996168222222222
mp-686934,LiCo(PO3)4,0.06925212861111074
mp-780770,Co3O5F,0.07352643486110999