mpid,formula,e_hull
mp-1040175,KHfMg30O31,0.10352777148809712
mp-715560,V6O13,0.02499011684208164
mp-707226,H8Se2N2O5,0.0897633472337871
mp-42307,Ba2Ce3Si3O12F,0.0
mp-972044,YbTh3,0.15377122499999984
mp-15683,CrAsRh,0.06858461444444508
mp-762938,Li3Mn4F15,0.06429457928029425
mp-1018025,LuAgO2,0.0
mp-770762,La7(FeO8)2,0.11013489447499758
mp-1023935,Te2Mo,0.004636461666666314
mp-5408,Ag3AsO4,0.0
mp-534782,Ca18Nd2Si3P9(O16F)3,0.01034432346385561
mvc-12745,Rb6Al4(Sb2O7)3,0.3638958567026984
mvc-12642,CaMn2O4,0.04185536999998973
mp-690129,BaMnO3,0.007629644066665442
mp-764145,NaMnO4,0.045930278229167065
mp-776847,Li4Nb3V2Fe3O16,0.0811700463243934
mp-776378,LiCuBO3,0.1160524967129577
mp-559554,Li2TeO3,0.002422585416667289
mp-29568,RuS3Cl8,0.0
mp-2282,NiS2,0.0
mp-15896,Cu2SiSe3,0.0
mp-23558,Ag2BiO3,0.0
mp-694928,Ca3La5Mn7FeO24,0.0007436077499907158
mvc-14574,Mg(TiN)2,0.7343972699999997
mp-568978,RbCdAg3(CN)6,0.2720996820658845
mp-780640,Fe3O5F,0.1157648231944437
mp-557412,Cs(CoS)2,0.02572326999999941
mp-556787,K2Cu3S3O13,0.0
mp-675342,NdPb4F11,0.03832140104166727
mp-1161,LaSe,0.0
mp-571587,Na2LiN,0.4202214625000007
mp-686581,In2(PSe3)3,0.0
mp-559969,CaLaGaO4,0.0
mp-1096383,GaReTc2,3.698864755
mp-558777,KNd(SO4)2,0.002935460208333573
mp-1032663,BaYMg6O8,0.41374590835937575
mp-14577,Rb4Ta2S11,0.006798836568626676
mp-619279,In2PbS4,0.006752231964284761
mp-9999,Ni(BMo)2,0.0
mp-558099,Nb2Tl5S4Br9,0.011594830499999986
mp-735566,KFe2P2H5O11,0.0
mvc-4133,Ca2CoSbO6,0.034941187125001605
mp-1027129,Mo3W(SeS)4,0.030691129999999237
mp-643394,NaInH8(NF3)2,0.009448667500000065
mp-1097376,Ba2SrCa,1.47301958
mp-557655,GdTlS2,0.0
mp-766792,MnCoO4,0.05481921916666988
mp-757663,LiSn(PO3)4,0.05077831581017378
mp-1028287,SrMg14Sn,0.09350850296875013
mp-778856,Li3Mn4(BO3)4,0.03888323634055979
mp-33363,LiYS2,0.008375714999999673
mp-570511,CdI2,0.001099661555555631
mp-676951,Dy3NbO7,0.06766807772726935
mp-778919,LiFePH2O5,0.09478212625000104
mp-1093753,MgCdHg2,0.6816734787500001
mp-675606,Li5AuO4,0.09203398149999842
mp-18880,ErVO4,0.03581329166666691
mp-672223,Na2Zn2(TeO3)3,0.2381916813020837
mp-555965,Li2ZnSn3O8,0.0
mvc-3232,ZnSiNiO5,0.203598265494791
mp-19430,Li3Fe2(PO4)3,0.0043177153749986985
mp-764557,V6O5F19,0.03606683474998729
mp-762297,Li5V3P8O29,0.0339281260185027
mvc-9661,PrZn(FeO3)2,0.10092013793750088
mp-9082,CsSmS2,0.0
mp-780512,Li2Mn3(BO3)3,0.052556643186255414
mp-20430,Er3PbC,1.8396835217192984
mp-31774,V2Fe3(SiO4)3,0.090097727437497
mp-706243,Al2Si3H8(NO5)2,0.0
mp-703291,Ba3CuP2Br3O7,0.5923679564843756
mvc-10359,ZnCu2(SnO4)2,0.20591910269230865
mp-675801,KNbCl6,0.0
mvc-2347,MgP4WO12,0.16993239944444394
mp-581405,ZnS,0.0003756239999992417
mp-20845,Dy2Sn2O7,0.0
mp-905403,Sr2FeMoO6,0.0
mvc-10594,CaCr3P3O13,0.020091774250001748
mp-540149,Li2Fe(PO3)4,0.006985097149133424
mp-13841,IrF4,0.0
mp-545488,SiO2,0.6979645025000005
mp-768037,VOF,0.018570704166667614
mp-685003,Tb2Se3,0.023684194250000342
mp-1078514,ZrNiP2,0.00259278598214685
mp-570828,AlHg2SbCl4,0.00040294671875029664
mp-1096706,Sr2PdAu,1.3538059875
mp-777086,LiV2OF5,0.057938633148150835
mp-989178,ScOF,0.08379511583333255
mp-773671,MnFe(PO4)2,0.03159499263890808
mp-680555,TlGaSe2,0.0039045737500003055
mp-1099026,CaMg14FeO16,0.03254301640625101
mp-570588,GaH13(C2N)2,0.1517566599374991
mp-1068742,SrZrO3,0.04835493699999915
mp-772217,ErInO3,0.015753188708333532
mp-650124,K2Rb2Re6S13,0.0029259163949220124
mp-19492,LiMn(PO3)3,0.000843500714282186
mp-755530,Na3CuO2,0.010089414166664312
mp-762040,Na(WO3)10,0.00027661341455598176
mp-1028848,Te2Mo(WSe2)3,0.04325860166666829
mp-1095593,Ho2In8Co,0.02163745409090856
mp-3316,BaCeO3,0.0013360130000030779
mp-650814,GaRe2(CO)9,0.29280486529761873
mp-1080501,Li2ZnSi,0.3187063012500011
mp-1039246,MgCd,0.02873250916666703
mp-4614,Tb(SiAg)2,0.0
mp-1096223,TiBeCu2,2.5505896401764705
mp-1019718,CsBe4(BO3)3,0.0
mvc-148,Ba2Tl2Zn3(NiO3)4,0.2179092852173952
mp-772576,Na2FeSiCO7,0.035604799739582305
mp-284,AlCo,0.0014494399999991359
mp-1036735,Mg30VCdO32,0.028313352382813406
mp-34291,Zr3InF15,0.0
mp-28372,AuSeCl7,0.0
mp-24886,Sr2UCoO6,0.026900243500000087
mp-1068312,CsCaF3,0.0
mp-28458,ErSeI,0.0
mp-545467,Li3(CuO2)2,0.012115339444443762
mp-18421,Ba2Ga2S5,0.0
mp-975564,PuBO3,0.7873219536666658
mp-30593,ZnCu2Ni,0.0030215737500003392
mp-17672,BaLi(B3O5)3,0.0
mp-23504,Sr2InI5,0.04596751500000007
mp-764155,Mn6OF11,0.03472766951389339
mp-556515,AsSOF9,0.04246024052084163
mp-764599,VO2F,0.08462386187500126
mp-680247,K3P6S6N7,0.01515029886364072
mp-28383,KNaS,0.0
mp-1076925,Ba3Np,0.7455286378125003
mp-560000,Ce2Ti2SiO9,0.00501365017857225
mp-626271,Sr(H8O5)2,0.038556236851850834
mp-1095476,LaSnPd,0.022895066388888274
mp-762821,Li3Ti3VO8,0.05741852710000295
mp-1031707,CaMg6CdO8,0.09996654000000048
mp-555060,K9Eu3Si12(O16F)2,0.0
mp-1028621,Te4MoW3(SeS)2,0.06718624895833525
mp-1021346,KNaMg6,0.17767219328124995
mp-30662,Zn3Ga4Pd7,0.02307840214285761
mp-745257,V2H15(NO4)3,0.4615267981753064
mp-20242,RbMnAs,0.037749011250000734
mp-690485,DyMnO3,0.02307591049998514
mp-767573,Na2ErPCO7,0.02582885916666733
mp-754587,K2Be2O3,0.03611098785714262
mp-1079335,Er(NiB)2,0.0
mp-39215,Zn3GaB6PO12,0.0
mp-28407,SBr2O,0.0
mp-1093651,CuSiIr2,3.1075020378125
mp-697672,Ce2(GeO3)3,0.05968157053571321
mp-32016,LiMn2(PO4)3,0.018572693402776785
mp-1008561,TmTlTe2,0.0
mp-20797,Yb(NdS2)2,0.2634278000000005
mvc-9221,MgFeBiO5,0.05563185468749944
mp-767284,Li6VFeP2(CO7)2,0.0546531588341308
mp-21246,Ba2Pb,0.0
mp-8121,SmCuSi,0.0
mp-1077386,LiFeP,0.09468112833333377
mp-1958,SrTe,0.0
mp-761675,Li2Cr3CoO8,0.0659800152380976
mp-683917,In4Cu9,0.017869108026316027
mp-1095619,SmNi3,0.0
mp-1000625,K(CoSe)2,0.026158039750000302
mp-853230,Li2V3CuO8,0.07114149202380649
mp-15238,Ho4C5,0.0
mp-1076674,Sr4Ca4Fe3Co5O24,0.06506564475000065
mp-865160,MgGeIr2,0.011923503644735156
mp-769666,Li5Mn6O12,0.03879713434779308
mp-1025225,ErGa5Co,0.0
mvc-10314,CaHo(FeO3)2,0.0
mp-972112,Sr2MgUO6,0.02003329350000272
mp-779388,Li24Mn5Cr7O36,0.013531293055553563
mp-683987,Ce15B8N25,0.4827988543750034
mp-1095339,DyNbO4,0.34338146916666723
mp-628735,KEuPS4,0.0
mp-1021409,RbMg6Sn,0.2412551164062502
mp-979942,Yb3V,0.4525873250000001
mp-1096663,ZrAlTc2,3.6005346706250005
mp-863035,PuSb3,0.4789016662499997
mp-865337,Lu2NiIr,0.0
mp-651951,MnV2TeO7,0.0
mp-15638,CdRhF6,0.0
mp-21077,LaNiGe2,0.0
mp-565430,CsFe(SO4)2,0.0
mp-681150,Pu5Rh3,0.4366588985351552
mp-23768,AlZnH4O2F5,0.003216303846156343
mp-8341,NaGeSbO5,0.017236533749999342
mp-672188,Y5Pb4,0.07724158055555462
mp-978919,Ba3Tb,0.22140860916666671
mp-11516,NbRu,0.024516970000000526
mp-771675,Li2MnVO4,0.06686330218750047
mp-1005829,Sm2Mn12P7,0.0
mp-761515,Li6V3P8O29,0.02452208393117328
mp-757215,Gd5(AsO6)2,0.07638880921052049
mp-541642,Na2Zr(MoO4)3,0.029250203194449043
mp-6816,Ti2Cu(PO5)2,0.006638711500002614
mp-779590,La3PO7,0.0
mp-28873,CsBrO3,0.0
mp-1076768,K5Na3Nb8O20,0.1574564952314823
mp-13,Fe,0.0
mp-1098389,KMg30CO32,0.19399856706054666
mp-1096311,Be2VPt,3.0417010957500006
mp-705510,Rb4NaW2N5O,0.948154829972971
mp-865602,Y2MgAl,0.0
mp-1011834,Na2CoP2O7,0.010628554652789113
mvc-13175,Ta2MnZnO8,0.08364232171296315
mp-21575,Pr3InSe6,0.0
mp-558544,MoS2,0.2766674699999996
mp-680550,ZnP2,0.1882049295833345
mvc-10644,ZnNi3P3O13,0.12840007606250214
mp-976596,LiLu2Ga,0.03217807749999979
mp-553082,PrBi2ClO4,0.0
mp-977539,LiNd2Ru,0.0
mp-22596,Ni3(PbS)2,9.241428571193921e-05
mp-21492,CeInNi,0.0
mp-1096253,Li2ZnCd,1.0537601762500002
mp-571561,Sm(NiSn)2,0.05013407999999942
mp-685014,In2Br3,0.0
mp-632623,MnIn2W,0.6933299799999997
mp-567657,K(CuSe)2,0.0
mp-24064,PHF2,0.11552776731547533
mp-1028144,Mg14MnV,0.1688305843750002
mp-1077096,ReN2,0.15189565142889272
mp-504427,Ti3PbO7,0.0
mvc-1621,Mg(SbO3)2,0.14215506555555546
mp-1026933,TeMo2SeS2,0.0529816099999989
mvc-9975,CaLaVCrO6,0.005228652071426865
mp-757796,Al2H10S3O17,0.0012849695605474665
mp-31972,Li3Mn(PO4)2,0.022460621071433096
mp-754224,BaSr2I6,0.019058915694444508
mp-777773,LaTa2NO5,0.030990561944442163
mp-636198,CeCu,0.07407840125000043
mp-560478,BaY2Si3O10,0.0
mp-572921,Cs2Ga3As5O18,0.0
mp-554549,CaGeO3,0.014665881291668903
mp-1095561,NdNi3,0.0
mp-771321,Cs4GeO4,0.007287838055556328
mp-977012,H6PbCBr3N,0.0348026113541664
mp-690538,Co3(AsO4)2,0.2244263369872037
mp-626006,H4N2O3,0.6498753890768816
mp-1158,LuPd3,0.0
mp-866295,DyLuMg2,0.001680272499999802
mp-906349,Fe3C,0.052851193124999085
mp-2173,P2O5,0.005117837857140373
mp-5491,MnAlAu2,0.0
mp-762478,LiMn3Al2(HO2)6,0.01814198020833313
mp-645942,Rb6U2W4O21,0.037192674924241935
mp-771859,Li3MnSiBO7,0.06150875238461673
mp-2214,TmMg2,0.0
mp-568151,Ti5Ge3,0.0
mp-13774,NaNdSiO4,0.0
mp-850009,FeS2,0.4015496841666657
mp-761526,FeCoO4,0.10827824572916978
mp-88,Dy,0.00291148833333299
mp-761492,Co11CuO16,0.10141528244047572
mvc-4152,Mg2TaAgO6,0.11274279372916762
mp-758675,TeH14C2(NO2)4,0.0837986945772391
mp-3592,KAuS5,0.0
mp-510569,CsCeCuS3,0.0
mp-850259,Mn6OF11,0.02917048201389338
mp-608338,ZrFeF6,0.10354317468750016
mp-772570,CoNCl4O3,0.0
mp-685105,SiO4,0.8202746668333312
mp-11604,KSm2CuS4,0.0
mvc-13203,CoO2,0.07890150083333136
mp-570403,TbCd3,0.0
mp-767343,Li3CrPCO7,0.0815105675240364
mp-631559,TlCoMo2,0.6712156762500001
mp-862813,PaPbAu2,0.0
mvc-9967,CaCr2O4,0.06437257845238875
mp-1080645,DyFeGe2,0.06187973541666825
mp-28983,Pd(PbBr3)2,0.012301930277776927
mp-2017,LuAs,0.0
mp-530251,Ti20(Sb3Se)3,0.005047469990234532
mp-764375,Li2VF6,0.02074512611112489
mp-28405,S(ClO)2,0.0
mp-1027832,LiMg14Cu,0.043841789687499855
mp-542012,Rb4Hf3S14,0.0
mp-771293,Mg3WO6,0.03460897674999952
mp-761368,Mn2FeO6,0.10586185715277807
mp-1023608,Mg15Ti,0.0518975714583334
mp-570084,Hg3AsSe4I,0.0
mp-16598,K3TmSi2O7,0.0
mp-559051,BaBiO3,0.0
mp-28378,HfFeSi2,0.0
mp-1078586,UGaCo,0.0
mp-976418,Nd3Ho,0.014807685625000566
mp-3143,Na2SO4,0.003888605714285731
mp-756645,Li5Ti3O8,0.022558307812500008
mp-779372,Li8Mn3Fe5(BO3)8,0.002089558437501361
mp-755256,LiBiB2O5,0.08064850374999821
mp-14280,Ga2Sn2S5,0.0
mp-8985,Ba2YC2(O2F)3,0.0
mp-774423,V3Cu(PO4)6,0.02187169636029473
mp-778568,V2O3F,0.004600189166669821
mp-11700,BaCuSb,0.0
mp-992015,TbNi5,0.0
mp-22980,Li2CoCl4,0.00776278142857123
mp-560326,Ba5B3CNO9,0.02344938361842264
mp-25152,RbVP2O7,0.0
mp-773194,Li4Mn5V3O16,0.06848513013017142
mp-723480,BaZn3P4(H7O9)2,0.18739178688281388
mp-743863,Ca5La7Mn7Ru5O36,0.017006560416669814
mp-19362,KFe(MoO4)2,0.0
mp-567435,UNiSn,1.0681923291666662
mp-554337,Rb2IrF6,0.0
mp-708066,Sb6H3CCl13O10,0.11563470978125336
mp-1074349,Mg4Si3,0.2301122137301599
mp-557591,SiO2,0.0659470923611103
mp-768095,KV13O20,0.09704869979575116
mp-763017,Fe2O3F,0.08380931364583777
mp-695157,KBaIn2(PO4)3,0.0
mp-755698,HfP2O7,0.016251570999997966
mp-505139,TiH2SO6,0.003659531400009186
mvc-5647,Mg2SnIrO6,0.13968678299999926
mp-866647,AcCrO3,0.0
mp-16032,Pr2TeO2,0.0
mp-1018659,CeO2,0.4290530599999976
mp-29595,CeBN2,0.07112394833333369
mp-22479,Zr4Pd2O,0.0
mp-30189,K5(DyI4)3,0.02029379369444495
mp-972322,Yb2SiO5,0.19710516992187527
mp-1859,NpMn2,0.19951805374999945
mp-771598,V(SO4)2,0.012720876818157478
mp-10481,RbAg3Te2,0.0
mp-19246,Sr2Mn3(SbO)2,0.08223212301333405
mp-22319,UB12,0.0
mp-744025,Sr8Mg3Fe(MoO6)4,0.0
mvc-4397,CaSb2O5,0.28487494640624433
mp-973936,NiI,0.2104322599999997
mp-30299,RbAsO2,0.0
mp-3710,HoBRh3,0.0
mp-1026901,Mg14NbCu,0.11281285906250015
mp-1074770,Mg2Si,0.2431893461666683
mp-1096722,Li2ZnCu,1.1629406233333333
mp-864745,Na3ZrF8,0.017218075317501302
mp-644879,MgSiO3,0.04907450400000268
mp-579139,Pr5Ti4FeO17,0.0010307248148233583
mp-771531,Li5Fe7O12,0.017173513124999932
mp-7148,K2SrTa2O7,0.0
mp-625452,Pr(HO)3,0.0020289507142869927
mvc-9134,CrBiO5,0.12897658252976285
mp-5348,MgCO3,0.0
mp-768353,YTmO3,0.07604210512499776
mp-1062510,NdPd2,0.2657338533333311
mp-861510,Pr2SnHg,0.0
mp-761252,RbPH3O4F,0.0
mp-21287,Gd(SiAg)2,0.0
mp-1039293,Mg3Cd,0.024264243750000247
mp-1021378,HfMg6Sn,0.11674503812499905
mp-570258,Ca3(AlN2)2,0.011811319861108059
mp-866100,Er2CuOs,0.0
mp-763258,FeP4O11,0.0003005857812530266
mp-555223,Cs2MnF5,0.0
mp-21352,NaIn2Au,0.0
mp-1094267,Zr3Sn,0.031210445000000142
mp-865131,Hf2OsRh,0.0
mp-982373,Pm3Zn,0.07220824916666667
mp-1097416,Y2SnPd,2.5299254067500003
mvc-16290,BaY2CoO5,0.0
mp-567889,TiGe2,0.0
mp-775633,Na6Mn7O10,0.04622165054347605
mp-8973,NaSi2N3,0.0
mp-29446,B3H4,0.16909338426339193
mp-978808,Sm2ZnGa,0.002679419999999322
mp-695295,H22RuN7(ClO2)4,0.555589123031587
mp-764026,MnOF,0.04754466819444847
mp-1072744,Hf2Bi,0.0
mp-770941,Li4Mn3Nb2Fe3O16,0.014382799285710847
mp-32594,Sm2Se3,0.01579212224999971
mp-767472,LiVSiO4,0.07015212883928433
mp-20554,InAgSe2,0.0
mp-1326,Nb3Sn,0.0
mp-721988,NaAlSi3O8,0.0
mp-567452,KFe(MoO4)2,0.0004165095833350563
mp-764322,VOF,0.07606921333333361
mp-769482,Na3Mn2P2(CO7)2,0.007206743695639339
mp-768142,Li13Nb14ZnO42,0.012055890273810377
mp-1030525,Te2MoW3(SeS2)2,0.07661258750000144
mp-772754,Li3YbPCO7,0.08268260019230489
mp-1095785,Be2CoCu,2.58595811
mp-631247,LiVTeO5,0.09217243015622588
mp-648469,SbP2SN3Cl10,0.04387142369804042
mp-568793,Ca28Ga11,0.0
mvc-4964,MgMn2O4,0.02953121803572678
mp-985702,AgPb3,0.09978372000000046
mp-758673,LiNb2O4,0.05940283357143095
mp-863899,Li2Ni(PO3)4,0.059529996885971485
mp-961679,TaAlPt,0.6777041741666672
mp-978089,Pr2IrAu,0.015446879999998941
mp-16915,BaTiOF4,0.0
mp-20907,La2InRh2,0.007910621666669115
mp-754375,NaTi2O3,0.052467003425928034
mp-556778,BaTeF6,0.0005982806250042216
mp-697925,Na5YbH4(C2O7)2,0.0
mp-614005,VCuO3,0.07680304199999721
mp-867927,LiVIr2,0.0
mp-37036,Bi2O3,0.09127035149999953
mp-556420,Rb2NaMn3F12,0.0
mp-1018684,Er2Mg3Ru,0.0
mp-10598,CuSn,0.0
mp-1073816,MgSi,0.18131904888888828
mp-1069603,LaAl3Au,0.0
mp-764545,Li3Fe8(BO3)8,0.06910313062498298
mp-25502,Cr(SiO3)2,0.11145448888889577
mp-1038879,Ca3Zn,0.132081872083333
mp-1021672,Sr2CuC(NO)2,0.17385840574218658
mp-743810,CsVZn(PO3)6,1.0031712997222213
mvc-8472,Sb2O5,0.03751600357142858
mp-20192,HfMnSi,0.0
mp-20296,In2Co,0.047418985833338916
mvc-8357,CaCr4(CuO4)3,0.02545665375000272
mp-20941,UIn3,0.0
mp-295,HoAs,0.0
mp-569055,CsLi2I3,0.017351443333333272
mp-767682,Li4Fe3(BO3)4,0.04023528244565178
mp-765849,LiFe(SiO3)2,0.010524566999982277
mp-1099309,RbMg6Co,0.35366024421875
mp-753901,Er2CuO4,0.033212375535727645
mp-540983,NaLiMo(H2O3)2,0.010282739433762345
mp-974307,NdCuTeO,0.0213022118749997
mp-756702,PrBrO,0.03259649499999995
mp-584660,LiCuPO4,0.04270804535714312
mp-27175,InOF,0.0
mp-2889,LaPd3S4,0.0
mp-626708,Co(HO)2,0.06702820549999444
mp-767752,Li3V5O10,0.0696013759722085
mp-543046,CsScP2(HO4)2,0.0
mp-20940,TiCdO3,0.039377740499999085
mp-30893,Sr4Bi3,0.0
mvc-14225,CaVF5,0.0
mp-1069723,U(CuAs)2,0.033474084999999036
mp-1096803,MgO2,0.537558096249998
mp-556809,Sr11(OsO6)4,0.0
mp-540022,MnPO4,0.020300481249970304
mp-560005,TlRe3(S2Cl)2,0.0
mp-770681,LiCr10O15,0.09814910596153936
mp-777965,Na4Ti11O24,0.11117303974360128
mp-23004,CsMgCl3,0.0
mp-1027948,Mg14FeSn,0.11674513375000027
mp-1025445,CeAl2Pd5,0.0015444574038410153
mp-3676,MgCu4Sn,0.0
mp-631257,AsSeBr,0.8314053672222212
mp-554681,ZnS,0.0003780508928565851
mp-775135,Cr3Ni(PO4)4,0.04756400458336607
mp-761041,TiP2O7,0.012531583499990616
mp-1016606,Mg6NbCd,0.16700381625000027
mp-861635,LiNi4(PO4)3,0.04867944924998824
mp-631343,LaRe2W,0.6210997424999984
mp-642847,Li4H6Ru,0.0
mp-697777,Mn(PO3)4,0.05774048025735201
mp-850015,CrO,0.14212919249999878
mp-7220,NaY3SiS7,0.06684622944444385
mp-771798,WO3,0.005230618749997973
mp-30952,GaCl3,0.0
mp-776516,FeSb3(PO4)4,0.08702278557293575
mp-1016843,MgOsO3,0.6443687450000004
mp-28390,CS3N4,0.3129154550823223
mp-555151,ZnS,0.0003762492857135592
mp-20748,Dy4In(NiGe2)2,0.0
mvc-811,MgV4O6,0.12894890765151598
mp-1030274,Te3Mo2S,0.06034691083333232
mp-1028352,NaMg14Ni,0.09277284656249997
mp-1028061,RbMg14Zn,0.1484784709875
mp-578781,BaP4(W2O7)8,0.012100275779236114
mp-866302,BaNaP3H3(NO2)3,0.0
mp-696470,Ag7NO6,0.2918009349999995
mp-31941,Mn2(PO4)3,0.04353958977941108
mp-684670,PtCl2,0.31264938444444645
mp-1035075,Mg14CoBO16,0.1693088043750004
mp-853218,V6O5F19,0.024036932749993408
mp-1023256,KCaMg6,0.20505039062500008
mp-556888,KSbF6,0.0
mp-771393,Na3FeBAsO7,0.025311074793958888
mvc-9040,MgMn2(PO5)2,0.1278846156666642
mp-1084774,BaNdCo2O5,0.04744381069445147
mp-690091,Mn3Cu3O8,0.019688152812493698
mp-6645,Ba14Na14CaN6,0.0
mp-8016,AlCuSe2,0.0
mp-777890,Ti3NiSn2(PO4)6,0.010812423726851428
mp-627,NpSe,0.0
mp-581734,Gd2Fe17,0.014361680526315368
mp-699451,Ca2B3(HO)13,0.016248399112901882
mp-779237,Mn3O5F,0.05226097736110713
mp-865849,NaYbAu2,0.0
mp-707929,LiBH2C4O9,0.09181784137443573
mp-1058527,CeS,0.4342260150000001
mp-861983,Ti2MnFe,0.0
mp-554885,Ba3Si6N4O9,0.0
mp-11603,KNd2CuS4,0.0
mp-19447,Cs2NaVO4,0.0
mp-569120,NdPt3,0.03375215750000216
mp-1096173,MnInPt2,2.1492352693750005
mp-1077691,SrCa7Mn6(FeO10)2,0.06763600267367309
mp-1097057,La3Zr2Cu7O12,0.23551871874999986
mvc-870,Mn3Zn(P2O7)2,0.0659831324147806
mp-4878,ZrGeSe,0.0
mp-8044,V2PC,0.0
mp-568488,Mo15Se19,0.06859231080882378
mp-19021,BaCo2(PO4)2,0.0
mp-744260,LiLa(MoO4)2,0.00796189782407275
mp-694945,Ba3La7Mn2(Co4O15)2,0.04828443570000029
mp-694954,Ca9LaTi9MnO30,0.008268713137500328
mp-1019054,ReC2,0.4517008287499991
mp-776323,Li2V5NiO12,0.10505131445833447
mp-1038378,HfMg30BO32,0.1529326731992171
mp-680008,P6N6Cl10O,0.01199734315217338
mp-774164,Li2V3SnO8,0.020496232767921896
mp-778683,Li3MnFe2(BO3)3,0.004500981759258949
mp-764298,Na5(NiO2)9,0.0
mvc-5764,CaMn2O4,0.11532919178570288
mp-762270,Li2Cu2F5,0.05480683472222303
mp-1099262,CsMg6CrO8,0.5438933040624939
mp-972680,Sm(AgGe)2,0.0
mp-979038,Th3O,1.5894542525000004
mp-560385,KRb2CoF6,0.040477949000000464
mvc-1121,Ba2Cr3O8,0.344430521923079
mp-867166,PuO2,0.08612449333333316
mp-567583,CsSbCl6,0.0
mp-771288,Li3Cr4O8,0.030617741518518038
mp-850274,H2,4.440892098500626e-16
mp-984604,TiPHO5,0.0017430534375026956
mp-12525,Sr2LiReO6,0.010560154999999405
mp-991729,CeInPd,0.0
mp-18658,RbLaSiS4,0.0
mp-762007,Li7(NiO2)9,0.009440144044124743
mp-611183,BaMnGe,0.2281993650000009
mp-309,ThAg2,0.0
mp-542729,Dy3Ni13B2,0.0
mp-28304,Ca3(AlAs2)2,0.09943701972222208
mp-5268,U2SbN2,0.0
mp-24123,Rb(BH)6,0.0
mp-1026631,RbMg14Cd,0.1394126843750001
mp-758233,Nb9PO25,0.00099483842865844
mp-631464,KBePt,0.9198433193333329
mp-505227,NiP4O11,0.0
mp-1003322,CaMnO2,0.023060517499999367
mp-542185,NaCu4(AsO4)3,0.0
mp-766949,Li3VF8,0.09662348500000027
mp-7387,KAgF4,0.0
mp-763337,Li3Mn2F7,0.05405410437500091
mp-505787,Ba3FeO5,0.0029248677777777843
mp-357,SmPd3,0.0
mp-560368,Na6Cu9(PO4)8,0.004385863090911712
mvc-7695,Ta2ZnCoO7,0.1548139890909095
mp-15889,Ba2LaIrO6,0.0
mp-10161,KZnSb,0.010079351666667513
mp-973625,Lu2AlTc,0.06731345374999886
mp-632586,FeHO2,0.8611311846874994
mp-319,Sm2Tl,0.0
mp-19211,SrNi3(P2O7)2,0.0
mp-2822,TmSe,0.0
mp-698476,H2C3(N2Cl)2,0.008773129616625575
mvc-13533,AlFeO3,0.2513471575000015
mp-764850,Li3(NiO2)4,0.0632348191666745
mp-672672,NaUO3,0.0037677869999992453
mp-1035683,KMg14BiO16,0.20728199546875006
mp-1023941,Te4MoW,0.014999367916665562
mp-975383,RbCa3,0.2329307000000003
mp-1038365,Mg30MnAlO32,0.05019955171125101
mp-773369,Li3MnO4,0.06330017999999883
mp-976291,LiAlH4,0.01669120083333331
mp-567705,TiAl2,0.0
mp-625920,Ta2H4O7,0.5210981876923073
mp-760804,Li2AgF4,0.06866880214285853
mp-714873,MnO2,0.01996843416666749
mvc-6162,Zn2CoWO6,0.058890835000000585
mp-15380,Sb9Se4F39,0.0
mp-568698,Mn2H30C9N3Cl7,0.07403374767156734
mp-573523,Sr8Fe3N8,0.026123799122803604
mp-755641,LiCuCO3F,0.11285801321429376
mp-32500,Mg2V2O7,0.0
mp-761326,LiVPO4,0.08114881323592638
mp-11701,YbCuSb,0.0
mp-849075,NiS2,1.1004363391666665
mp-697785,LiV2P3O11,0.04624914411764358
mp-853166,Na3Mn5O12,0.07116676619711537
mp-1039091,Mg2Bi,0.09724315499999968
mp-1093684,BeAlPd2,2.285054278653846
mp-867290,TbTe,0.0
mp-571030,TlPd3,0.0011221987500000807
mp-850909,Li3Mn2(PO4)3,0.06120426174999949
mp-1008727,Ti2Ge,0.8497240981481484
mp-601178,H6C2NO,0.29068948268750017
mp-770100,Mn2(SO4)3,0.03530064750000328
mp-1570,YFe2,0.0
mp-1069956,Ca(SiRh)2,0.0
mp-1095533,KAsO4,0.2292002243750009
mp-567401,Tb4Zn5Ge6,0.0496859667516345
mp-1097426,Ca2HgPd,1.4703676874999998
mp-1099023,CaMg14FeO16,0.06149240546875045
mp-1097336,VCr2Re,4.014236723124999