mpid,formula,e_hull
mp-862884,CaPmPd2,0.0
mp-554461,K(OsO3)2,0.0
mp-867364,LiTmPd2,0.0
mp-765796,Li3Mn3CoO8,0.06949734638194904
mp-32447,V4As2O13,0.0
mp-560657,RbLa9(IrO6)4,0.0
mvc-9464,Ba2Sn2F11,0.14201375036110964
mp-770050,CdCoO3,0.036635088500000634
mp-648390,CoSb(CO)3,0.3624652141666669
mp-771476,Na3MnAsCO7,0.0
mp-558307,PW5O17,0.0003701318476494464
mp-1035237,Mg14CuSiO16,0.21138729460937533
mp-10670,Ca3(AlGe)2,0.0
mp-23569,AsSe6IF6,0.0
mp-767908,LiCo2CuO6,0.06550617518750368
mvc-1094,BaYCu4O7,0.1456435426922944
mp-35417,Li3TaO4,0.0645909781249987
mp-10055,Co2B4Mo,0.015467162857141226
mp-21388,U(CuGe)2,0.00477891280000442
mp-20621,NbInS2,0.02236908000000337
mp-30720,Mn2Hg5,0.23380700357142856
mp-642646,BaP2(HO)4,0.0
mp-1032468,RbMg6MnO8,0.3811534863541671
mp-1882,CaCu5,0.0
mp-672256,Y5Ga3,0.0
mp-866315,Al(Ni3B2)4,0.0
mp-730190,H4NF,0.03177313833334594
mp-1100931,V2Bi4O11,0.07170464867644544
mp-1076079,Sr5Ca3MnFe7O24,0.026194528583324942
mp-971909,ZnPd3,0.01550602249999944
mp-32543,H2WO4,0.04338008357142886
mp-504531,CuH20S2(NO7)2,0.009735326455051485
mp-775684,Li4Cr3Sn3(TeO8)2,0.08148367854910354
mp-766972,LiMn2O2F3,0.029430931562500536
mp-31086,NaP5,0.01053557500661384
mp-778259,PrHfO4,0.06068068552083261
mp-756867,LiCuBO3,0.09980574763888406
mp-27214,CsSnBr3,0.0
mp-7285,HfNi3,0.0020662647499998248
mvc-15000,FeO2,0.2092250972916725
mp-561304,KAg3As2S5,0.0
mp-1096679,Mg2InGa,1.4335675846875002
mvc-5763,MnZnAsO5,0.015162232473961978
mp-972884,Sc2AlCu,0.017774299999999243
mp-998153,TlGeBr3,0.03141747749999935
mp-4384,Nb2CS2,0.017143831791671005
mp-865789,YbInAg2,0.0
mp-761353,P4WO13,0.05266081499999853
mp-770736,Na4Cr2As(CO4)4,0.08372897120370126
mp-1080355,CeSe2,0.5375502925000006
mp-561321,AsSeS2N2ClF6,0.06462153004250304
mvc-11109,Mn2Nb2ZnO9,0.1284117132142928
mp-4904,Pr(SiRu)2,0.0
mp-769646,Li2TiCo2O5,0.04629312749999581
mp-921,YRh2,0.0
mp-1023937,WS2,0.0016469883333343205
mp-849258,Li3Mn4(BO3)4,0.04415199329708129
mp-989605,Cs2RbInF6,0.0
mp-1063581,H3S,0.7835571978450004
mp-585395,Li4Co(PO4)2,0.0013098824167281364
mp-557146,TiAs2O7,0.016101705999995275
mp-673633,In2S3,0.02554282674999886
mp-558224,Dy2(TeO3)3,0.0
mp-28795,LaSi2Ru,0.0
mp-685945,Er14Ti10O41,0.17285608038461395
mp-768921,Li8B2O7,0.06675149808823377
mp-23220,YbCl2,0.009572099166666348
mp-2120,HoAg2,0.0
mp-707923,HOs6C18S2O19,0.20294434372282666
mp-767904,Li9Mn14O32,0.01432582236358382
mp-1031027,LiMg6CrO8,0.04409153624999984
mp-1035953,CsYMg14O16,0.3046931482812241
mp-1040232,RbLiMg30O31,0.11121601537698478
mp-758780,LiBiP2O7,0.05588742916666867
mp-865213,Ba8Bi4H2O,0.0
mvc-11561,MnO2,0.014288353750000482
mp-19438,LiMnO4,0.14269887204860954
mp-643614,Nd(MnSn)6,0.030341627564102858
mp-763718,Li2Mn(SiO3)2,0.07868345439393121
mp-761780,LiCoPO4,0.09620268875000182
mp-851072,Li7Fe5OF15,0.09803502267856956
mp-849572,Li2Fe3OF6,0.07123628666666626
mp-1096138,LaYAl2,2.724123156875
mp-853139,Li2V(PO4)2,0.07778425807691924
mp-1252,ZrBe2,0.03367687066666303
mp-1040266,KMg30CrO32,0.042942852968753435
mp-755459,Rb2O,0.018174219999997014
mp-510441,YInPt2,0.0
mp-20511,In(Mo3Se4)2,0.054489819833334785
mp-23755,BaH3C3O7,0.048694849910711824
mp-997589,La8Al7InO24,0.05955792962499906
mp-765325,Li2V2OF6,0.058852516515149673
mp-18743,CaMnP2O7,0.0
mp-566266,Nd2Mo(SeO5)2,0.0
mp-1096700,TaBeCo2,3.4138620745
mp-764237,LiVOF3,0.08853591295635876
mp-687229,Li2Mo(PO3)8,0.049015633690480336
mp-707734,AsHPb4(ClO)4,0.0
mp-20357,Ce2InPt2,0.0
mp-4324,Tm2CdS4,0.0
mp-705898,Ca2VFe4BiO12,0.07355330212500011
mp-1022817,YMg6V,0.19860377625000056
mp-863878,VF4,0.04136017499999767
mp-34439,Tb10Ti6O27,0.0987654343604607
mp-1771,NO2,0.0004964702777767727
mp-777315,Li2Mn3(BO3)3,0.07000235151959089
mp-625801,Sr(H8O5)2,0.0
mp-1018661,CePbAu,0.03696961444444291
mvc-8404,CaGe2WO6,0.09944550935000153
mp-2568,YSi2,0.036868876666666495
mp-638685,CsEuBr3,0.0
mp-560715,Sn5(PO5)2,0.0
mp-761360,MnCd9O10,0.0077223975000002545
mp-1076177,Sr6Ca2Mn3(FeO4)5,0.040010663541684366
mp-1120,Mo3Ir,0.08135289375000099
mp-777512,Mn3(O2F)2,0.06378588999999746
mvc-5694,Zn(MoO2)2,0.0
mp-1029336,KZnN,0.1851114396581197
mp-28433,RbClO4,0.0
mp-980190,LiYb3,0.08650462499999989
mp-638137,CSeN,0.4484519917587511
mp-555110,AsH5C2(OF3)2,0.17651036171875045
mp-1003483,CaMn4O8,0.02741220379807708
mp-17913,Tb2SiSeO4,0.0
mp-766903,Li2MnF6,0.03603341925925907
mp-21012,Si3Rh5,0.0
mp-1010161,DyAs,0.4796322200000001
mp-555704,ReO2F3,0.0
mp-744434,YNiH3SO7,0.0
mp-772920,Li8Ti2O7,0.08880089382352985
mp-767216,LiMn(PO4)2,0.08860376906250256
mp-573604,GdMg2Ag,0.0951453150000008
mp-559832,Hg3(SBr)2,0.001095905714286527
mp-676724,Ca(Al3Te5)2,0.21097233500000007
mp-773674,Li4Ti3V3(FeO8)2,0.03534830452427862
mp-989576,YWN3,0.04592738149999498
mp-570118,YbTlSe2,0.11175562250000004
mp-19601,Ni2Te3O8,0.0
mvc-9164,V3ZnO7,0.05673388113635802
mp-648411,BaCrO3,0.06818803658332939
mp-865227,TmMgCd2,0.0
mp-1008733,Ge,0.3192192150000004
mp-29783,B5H9,0.019660927418829743
mp-769262,K5YO4,0.010741739749999368
mp-504348,Li3Cu(PO4)2,0.0531036998772354
mp-779156,CdSeO4,0.001229204583333754
mp-974000,Lu2Fe17C3,0.00252642439394002
mp-698623,K4W11O35,0.8136839401333349
mp-38090,Fe2CuO4,0.08805363357142593
mp-705127,Mo2P3Pb2BrO15,0.14653535460597136
mp-560082,Ho2Ge2O7,0.0
mp-3852,Tb3(CuGe)4,0.0
mp-1094961,Mg3Al,0.06170798586538464
mp-571428,MgNi3B2,0.0
mp-1096664,Sr2ZnPb,1.6040651405000002
mp-1339,NbIr3,0.0
mp-675237,Na3GdI6,0.0
mp-680345,Tl2Br3,0.012059449437500369
mp-1026834,KMg14Sb,0.1886258209375
mp-28987,NaPt2Se3,0.0
mp-673255,Cu9Se8,0.0006634976470585308
mp-771478,Mn3Fe2P6WO24,0.07998334524564576
mp-28623,Li4Ge5O12,0.0
mp-1095586,LiGaH4,0.0
mvc-12954,Ca(MnS2)2,0.18442660428571234
mp-866917,CaSnS3,0.2877140217500003
mp-704546,RbNaCr2O7,0.0017705487499917183
mp-610917,O2,0.02377676374999993
mp-28962,Ti4Bi2O11,0.006088243455836917
mp-1078198,Ba2CoAg2(SeO)2,0.12043680722222305
mp-540714,NaH8SNO6,0.0057709099264693356
mp-17599,CaCu3(GeO3)4,0.0999739152500112
mp-762392,Li2Cr2Si2O7,0.09714771750000484
mp-864910,MgZrRh2,0.0
mp-676799,Ag8GeTe6,0.033856739333333774
mp-540554,NaH5SO4,0.027545051221594896
mp-568928,Rb2FeI4,0.0028725214285714173
mp-780038,Mn2O3F,0.07769329937499414
mp-12594,TiIr,0.07449920999999904
mp-722330,Li3La2H6(N3O10)3,0.0
mp-20883,Fe3Sn,0.039705532083332606
mp-9400,CeAlSi2,0.012995527499999326
mp-765314,LiMn3(O2F)2,0.07926654143750245
mp-975814,Mo3H,0.8628368053450011
mp-11307,MgCd,0.0
mp-562854,CsNb2BiO7,0.0
mp-972591,Sm(Mg4Al3)4,0.026260843660476763
mp-754663,Na2Be2O3,0.035383957142862243
mp-25790,V6PbO11,0.0315343586111112
mp-555611,Cs3KRe6C6(S4N3)2,0.0037618129589684908
mp-510367,Fe2P2O7,0.0
mp-1099328,CeMg6Ni,0.19325666718750026
mvc-8698,ZnNiBiP2O9,0.14345221848214162
mp-650817,K(MoO2)4,0.02204425519230391
mvc-11621,Ca2NiWO6,0.0
mp-761482,Li2FePO5,0.08636886902777262
mp-542289,HgNO3,0.0
mp-1036049,YMg14NiO16,0.12141773515624975
mp-555915,S,0.02077830774305589
mp-1019568,CaAl2SiO6,0.0331731962083337
mp-3660,LiB3O5,0.0072952078703689685
mp-1026661,NaMg14Mo,0.1436343409375005
mp-984718,BAs,0.09032510000000027
mp-864915,HfBr3,0.0
mp-768155,Na3TlPCO7,0.03601927708332564
mp-863698,Pm2MgAl,0.0
mp-29422,HfCl4,0.0
mp-663,NdGe,0.0
mp-11524,TlNi,0.23271884499999995
mp-8622,Rb2PtSe2,0.0
mp-28629,Ta5B6,0.0
mp-771260,Y2Hf2O7,0.07584651227272587
mp-12657,HfAl2,0.0
mp-1020,TaRh3,0.0
mp-616425,MnC6S2NO5F6,0.4806651561621749
mp-18767,LiMnO2,0.003971560000006313
mp-571502,Ga(BiBr)4,0.0076536444907406844
mp-7176,RbLaSe2,0.0
mp-1025921,Te4Mo(WS)2,0.08412190138888853
mp-18875,MgWO4,0.0
mp-770725,RbLi2Mn2(BO3)3,0.0846969010924532
mp-637,YB4,0.0
mp-565250,CeTl5Ni2(NO2)12,0.16152657947386473
mp-557962,SrLiBS3,0.0011707643055576256
mp-979043,Tm2CoCu,0.0
mp-673800,U11S20,4.2454185051612825
mp-14765,Ba(Ni5P3)2,0.00654287078431981
mp-8347,BaMnS2,0.02789279031250036
mp-29685,RbAg5Se3,0.002523250555553247
mp-22906,CsBr,0.04037617499999957
mp-1078348,CeGa3Pd,0.0
mp-754198,Ba(LaI4)2,0.07809694193181782
mp-853158,Li2CoOF3,0.10275748339285773
mp-864839,Zn2PdRh,0.0
mp-14131,K2Pd(NO2)4,0.017266452846132374
mp-705468,Li3Mn3(PO4)4,0.026564149711541408
mp-762264,Li2CoSiO4,0.08045785187499366
mp-1040209,KMg30GaO32,0.0502702704785154
mp-775568,Na3Ni2P2(CO7)2,0.04041449172553602
mp-764014,V3OF11,0.04041897583332688
mp-650473,Na3Li3Cr2F12,0.0
mp-555933,Na2P2PbO7,0.0
mp-20539,ScIn3,0.0
mp-558465,LaAg(PO3)4,0.0
mp-555462,Al(HO)3,0.037917768214284386
mp-770563,Mn3(PO4)2,0.012300716730763384
mp-17161,K6CdO4,0.0
mp-570712,SnH16C4(NCl3)2,0.058731909827585575
mp-1017377,Mg6SiB,0.2595204845000003
mp-1076858,Sr7CaFe7CoO24,0.02034024824999925
mp-766807,Li4Mn3O6F,0.04116384357142966
mp-19607,K(MoO3)3,0.03999575524725252
mp-705006,LiV(PO4)2,0.0328671346527738
mp-556708,KUP3O11,0.0015200251562781375
mp-561353,NaZr2MnF11,0.0
mp-866163,YInRh2,0.0
mp-966802,Cs2Li3(BO2)5,0.006488259041669942
mp-607960,Cd27Pd8,0.20506000034920646
mp-557979,MnTl2As2S5,0.029037106000001426
mp-978291,Mg3Pa,0.3586054175000002
mp-1016842,TiHgO3,0.23469707799999906
mp-864918,NpN2,0.13884370666666612
mp-631468,SrScBe,1.3696130939999995
mp-864908,MgTiIr2,0.0
mp-28670,Ba2Bi2O5,0.0
mp-974330,SBr3,0.4486686468750001
mp-27344,Be(BH4)2,0.0
mp-20601,NdPb3,0.0
mp-780902,Mn6O5F7,0.06916411534723466
mp-1140,NdCu5,0.0
mp-767702,Li4Ti3Ni2Sn3O16,0.08074311571428172
mp-567153,Mn3B7BrO13,0.008821042916666855
mp-864799,HoLuMg2,0.002261714999999498
mp-1078669,NpTe3,0.24834840124999946
mp-1080460,Mo(BrO)2,0.035986785999998716
mp-866304,Ba2GdB2ClO6,0.0
mvc-9170,CaVBiO5,0.009362732500010296
mp-1094292,Sr5Mg,0.06690923979166663
mp-782717,Ta2CrNO5,0.06475286944444925
mvc-15838,ZnSnF5,0.13112856214286506
mp-1027627,TeMo2SeS2,0.054148274166664116
mp-761542,LiMnPO4,0.055758444047619087
mvc-5825,VZn2IrO6,0.16551429537499995
mp-1019522,Ba2B10O17,0.0019804362500064343
mp-4644,Si2N2O,0.1888157134999986
mp-19558,KFePO4F,0.0
mp-1023014,KMg6Mn,0.5045743225000003
mp-776874,Li2V3(FeO6)2,0.02840387408991063
mvc-5007,ZnSi2SnO6,0.08985481441666465
mp-27897,Ba(NO2)2,0.03106388401371785
mp-16744,Y(Al5Fe)2,0.0
mp-25028,TbMn2O5,0.0
mp-1061865,TeN2,1.5068443550800064
mp-1039332,Ca2Mg,0.10315974861111132
mp-757788,LiNb(PO3)4,0.114953974355811
mp-7691,YB4Mo,0.0
mp-569050,NaW6NCl18,0.0
mp-1096570,ScAl2Tc,3.1402191368750003
mp-565725,ZrV2O7,0.0
mp-768970,Li2BiO3,0.07955633791664685
mp-642284,CsVSO6,0.0
mvc-11622,MgV2O4,0.0
mp-567685,Er4InIr,0.0
mp-763241,Li3Cr2P2(CO7)2,0.047638109883009434
mp-1035183,NaLaMg14O16,0.1261038335937501
mp-30630,EuTl2,0.0
mp-570829,VINCl3,0.14812520541666618
mp-25070,Mo(RhO3)2,0.0
mp-30459,ScNiBi,0.0
mp-754368,NaSbO2,0.000401967999998476
mp-1023268,Mg6AlBi,0.08063063230769217
mp-16981,Sm5Si3O13,0.0364117721651791
mp-574029,KC4N3,0.2580734409374994
mp-672302,Ga2Se3,0.4349467730000001
mp-1063566,MgSc2Ru,0.0
mp-11953,RbHg11,0.0
mp-772060,Li3NbFe3O8,0.08951734233332953
mp-1094674,Mg2Ga,0.049968128055556615
mp-1034112,Mg14TiCO16,0.29127844562500105
mp-279,LiIr,0.0
mp-850516,Ca2SiB5H5O14,0.002939852993826264
mp-5166,Ca(AsPd)2,0.0
mp-29688,Ge3Cl8,0.0
mp-567832,TiTe,0.09394026499999963
mp-756096,Hf2N2O,0.07603138749999516
mp-38725,NaBH4,0.0001712658333339334
mp-765093,LiSb(PO3)4,0.08422295805553938
mvc-9843,HoMgTi2O6,0.057669649749998435
mp-18844,CaMn2O4,0.00014730535714591042
mp-261,Ba3Al5,0.0037182560714299493
mp-625,Mg3Ru2,0.0
mp-715463,MoO3,0.03885495406250072
mp-559631,Bi6Rh12O29,0.02510502351063959
mvc-7256,Mn(SiO3)2,0.20942768986111204
mp-1013546,Ca3Sb2,0.3791800872941158
mvc-8758,ReBiO5,0.06042791160714689
mp-1558,SrPd2,0.0
mp-770135,Li2MnV(PO4)3,0.029977305263102494
mp-561926,NaNiIO6,0.0
mp-999448,NaYSe2,0.0
mp-999491,NaCeSe2,0.0
mp-777323,Li3Fe2(CoO4)2,0.09349094750000386
mp-676049,KBF4,0.07412939249999972
mp-571440,K2CuBr3,0.0
mp-674310,Cr4Cu3Se8,0.032838071999998775
mp-1077840,Mn(BiTe2)2,0.00946558785714302
mp-555524,Na4MgC6(SN)6,0.029996088925122063
mvc-14378,Mg(FeO2)2,0.22186162892858616
mp-690012,CrPO4,0.24130112000000106
mp-849465,Mn6OF11,0.02439604395833861
mp-1013922,LiCr2P2O9,0.02242530821427113
mp-30304,Bi3SbO7,0.0
mp-770927,Sm3TaO7,0.0018972059090760496
mp-1077556,TbSnGe,0.0034719044444440073
mp-1097905,Li3Mn4O8,0.1157678892708347
mp-13775,Gd2Si2O7,0.0
mp-3465,LaB2Rh3,0.0
mp-611393,BaLuFeCuO5,0.013075020569447204
mp-552738,TmBi2IO4,0.0
mp-582813,K10In5Sb9,0.0
mp-973391,LiSiB6,0.0
mp-865928,Ti2TcPt,0.0
mp-680530,BiPtPb3,0.0
mp-849060,VS2,0.018995090000003326
mp-36248,H4BrN,0.011541814166665887
mp-1097214,Tl2InBi,1.0292176370833332
mp-532085,Li2IrO3,0.0
mp-765679,Na5(NiO2)6,0.006708183478260743
mp-765057,Li5FeNi3O8,0.0674651057352964
mp-561034,Ag9Ge2IO8,0.0119332228124982
mp-752615,Li4(CuO2)3,0.029049335769230744
mp-560238,K2CuF4,0.0035187710714286173
mvc-15104,Ni(PO3)4,0.10509645374999987
mp-1080338,CeSe2,0.5509389837500009
mp-1096295,VCr2Mo,4.177829830000001
mp-707307,Nd2P3(HO2)5,0.013832923914238291
mp-435,ThSn3,0.0
mp-767553,Li7Sb2S,0.08882072716666611
mp-1008624,YBiPd,0.0
mp-743901,Ca2Mn7Si10H12O35,0.014083906628787448
mp-1039854,Mg30NbSiO32,0.13101334257606734
mp-1028237,NaMg14Al,0.03689227459134648
mp-973316,NaLi3,0.04590464750000023
mp-14429,CsK4GaO4,0.0
mp-1301,Yb2S3,0.5187385930000001
mp-775217,CoSb3(PO4)6,0.02214126897060353
mp-566833,LiV(IO4)2,0.001013156979166041
mp-583070,Re2Te5,0.0
mp-5402,CaTl2O4,0.00936029678570982
mp-1045,Nd2O3,0.0
mp-13758,Nd4Re2O11,0.0
mp-20119,PtO2,0.7875174433333338
mp-17035,K3Sc(PO4)2,0.0
mp-605347,HgTe(H2O3)2,0.05574191392361083
mp-675048,Sr3Nd4O9,0.2645434237499984
mp-769049,BaLaCl5,0.08306166928571647
mp-12901,Tb6FeSb2,0.020468209475308363
mp-973933,NiN,0.3071993217066682
mp-18464,Rb4GeO4,0.0
mp-775300,Na3CoO3,0.034213517499996016
mp-556009,MgTlAs(H6O5)2,0.0
mp-29589,Ta3(Se4Br3)2,0.0
mp-22367,PdPbO2,0.0
mp-771730,Li4MgNi3O8,0.017033680937494466
mp-762182,Li3Fe2(CO3)4,0.06030956690476419
mp-766153,LiNiBO3,0.017403148750000597
mp-28714,Dy(AlCl4)3,0.0
mp-542476,Dy2MoO6,0.0
mvc-8034,V3Zn2O8,0.024042896538456482
mp-6219,K3Co(CN)6,0.0705205123046877
mp-565195,SrCrSn(PO4)3,0.0
mp-15521,Ba2LiSi3,0.0
mp-863000,SnH6(NF2)2,0.0
mp-704209,Mn5(P2O7)4,0.04553066323169208
mp-1005761,SmGd3,0.018367823125000626
mp-771324,Na3CaPCO7,0.029713283846157342
mp-570254,ThBC,0.0
mp-504650,La3CuSiS7,0.0
mvc-3264,MgMnSiO5,0.0892743480729159
mp-614760,Cs3MnF7,0.003687572727272936
mp-24199,LiHF2,0.0
mp-772363,FeCo3(PO4)4,0.047606931562476085
mp-780004,Fe5O3F7,0.17335253833334008
mp-25622,VO2,0.255177831666666
mp-754796,NaTmO2,0.0018568181249998261
mp-761606,LiMnPO5,0.07243217018228876
mp-27132,Zr2P2O9,0.0007128857692304535
mvc-5047,Zn2SnWO6,0.15843192050000174
mp-2398,ScSn2,0.0
mp-626120,V3H5O8,0.008017164687500689
mp-998233,InGeCl3,0.009650159000003544
mp-685797,Li6Ti9O20,0.01593209847619903
mvc-664,YRe(WO4)2,0.2862137078472209
mp-773996,Li2CrO4,0.09912707226190333
mp-1079265,NiPRh,0.06352789222222466
mp-764136,Mn3(OF2)2,0.04990112916666778
mp-1033691,Mg14BSbO16,0.3457165286458341
mp-758855,LiZnBO3,0.02406607520832971
mp-510127,V6O11,0.01730972897059324
mp-864769,LiYb2Tl,0.0
mp-1019055,ReN2,0.5025312030955593
mp-760698,Yb2TiO5,0.1909755870312501
mp-1098386,KMg30BO31,0.16695790476190542
mp-1028195,Mg14MnNi,0.10137004500000037
mp-22289,Mn2CoGe,0.030450421249999405
mp-999189,Fe3Ni,0.07507831999999938
mp-996954,CuPtO2,0.02510159359756248
mp-763985,Cr4OF11,0.03476391205728735
mp-763834,K2LiMnPCO7,0.0641993642307721
mp-569477,La10Al5Br4,0.0
mp-34987,Sm(DyS2)2,0.06539315249999955
mp-779344,Mn12O7F17,0.0610433369097203
mp-1095626,La2P2AuO,0.0
mp-868608,FeOF,0.08188727722222389
mp-2699,CaSi2,0.0
mp-1039765,CeMg,0.02775212999999921
mp-570315,PBr2N,0.0
mp-560703,Te3As2S(OF6)2,0.11928168545454465
mp-765320,Li2Fe(CO3)2,0.0
mp-19795,InS,0.0
mp-571179,AlTeCl7,0.0010263602777778047
mp-4652,MnRh2Pb,0.024500468333332748
mp-782645,Li2MnPHO5,0.0569075316250025
mp-30092,TiCl4,0.0
mp-541269,GaNi2BO5,0.0
mp-770431,Ho2(SeO4)3,0.0013643625000003825
mp-13948,Cs2HfF6,0.0
mvc-6640,CaCuW2O7,0.247376007121213
mp-1070599,CsYbCl3,0.0
mp-1096007,HfMgPt2,2.5197915771874992
mp-997541,Fe3Co2Te(PO4)6,0.05391630409337367
mp-1096764,Ca3SbP,0.7068153359999974
mp-25705,NaMn3P3(HO6)2,0.0
mp-553942,Cu2S,0.23446632375000045
mp-600198,TeH21C7(NCl2)3,0.11704185229440787
mp-1040370,SrMg30TiO32,0.06922746312499939
mp-540885,Na3PH16(SO2)4,0.014018410156250384
mvc-14178,CaSnF4,0.04499979791666586
mp-765235,Zr32N17O39,0.036824696638710464
mp-677396,Sr2IrO4,0.7094313171428581
mp-1094534,MgSb,0.21372117583333328
mp-30429,Ba8Ga7,0.0
mp-1093789,Al2CuIr,2.59030287875
mp-27882,Cs2GeCl6,0.0
mp-23318,BiSCl,0.0
mp-779268,Li8Mn5Fe3(BO3)8,0.003523483715274445
mp-1064220,MnSb,0.0
mp-975385,RbBO3,1.4941646147500007
mvc-5570,MgVP2O7,0.04399099528408357
mp-1080520,SrTcO3,0.009510771999997836
mvc-7302,Mg(BiO2)2,0.04673126535713834
mp-626362,FeHO2,0.08496658828125002
mp-780044,LiCoOF2,0.10223099775000044
mp-2604,MgTe2,0.007170696666666476
mp-540028,LiVP2O7,0.04032460659090553
mp-756531,LiNd6(CuO6)2,0.022031608833327887
mp-565482,Fe2Ag(MoO4)3,0.033068855694441616
mp-600070,SiO2,0.019501853333332875
mp-28959,Si2Cl2O3,0.026501255535713145
mp-1076695,Sr7CaTi8O20,0.07037812858798276
mp-1014873,NaLi2As,0.4736393579166669
mp-541002,KNa2FeO3,0.0
mp-780152,LiFeOF2,0.09637696047223088
mp-19668,LaCrO4,0.005051093750006785
mp-554889,ZnS,0.0008842372916659791
mp-1031251,KMg6SiO8,0.459696425390625
mp-780030,Fe3(O2F)2,0.0789922074305549
mp-541420,GdCu(WO4)2,0.038941799270833855
mp-1099092,SrMg14Fe,0.17055654156249989
mp-1074458,Mg4Si3,0.21409940873016
mp-2796,TmAg,0.0
mp-623453,MnGa2Co,0.15765083083333398
mp-976008,NdTmMg2,0.006370098749999722
mp-1097553,Ti2VOs,4.026498930833333
mp-11653,BPO4,0.03897758111111038
mp-5615,CaAgAs,0.0
mp-20301,La2Pd2Pb,0.0
mp-849531,Li2Fe5O5F7,0.0827251632748558
mp-1038704,SrMg30CdO32,0.0554592354687502
mp-1079618,TbAl4,0.015054687999999315
mp-769005,Ba2YCl7,0.06331495499999917
mp-866580,Ca2SnS4,0.07241448773809367
mp-1057758,BaN,0.5126979474999995
mp-625392,Lu(HO)3,0.0008931146428565738
mp-977206,NaTm,0.2959241024999999
mp-560296,K(Mo6S7)2,0.06268443879629615
mp-16695,K2ZnP2O7,0.0
mp-866209,Pm2SiNi,0.0
mp-1025397,GeRu,0.012635698124999985
mp-774651,LiZnAsH2O5,0.022249274249999118
mp-762879,Li2MnV2O6,0.10414646386363646
mvc-4682,Mg(BiO2)2,0.19220215678570884
mp-573608,CdI2,0.007732771055555698
mvc-9827,MgCu2P2O9,0.08801663160714135
mp-1077935,V2CoS4,0.020324471746028472
mp-675329,LaZr9O20,0.07810093289583442
mp-755883,NaDyO2,0.004060323749985884
mvc-672,Ba2YSb3O8,0.29269760698413005
mp-762757,Li4V2Fe3O10,0.05770891388157207
mp-676767,Ba4Yb3F17,0.0
mp-641931,Nd2MnCoO6,0.0
mp-1200,TbCo5,0.007138989444445799
mp-754120,Dy2Nb2O7,0.09234990191919223
mp-1076906,GdRh,0.0
mvc-10383,BaTiZnF7,0.08601135324999909
mp-30965,NaClO2,0.21409693875
mp-578775,Fe3SiP5O19,0.01081210910714514
mp-1064272,NaN3,0.9593988275000004
mp-694892,CaLa3Mn4O12,0.0023280432499994674
mp-569715,CuBi(PSe3)2,0.013903900625000354
mp-561348,KCoF3,0.14739317066666754
mp-31097,KAlH4,0.0
mp-22506,Cs6InAs3,0.0
mp-767147,LiCr2(PO4)2,0.08094752506410073
mvc-10024,LaCrSnO6,0.2694848280555577
mp-674436,NdZr9O20,0.0694010521458317
mp-1096265,LiSc2Co,2.3440468329687505
mp-768288,Li3FeS3,0.16058283178571475
mp-541401,As2Se3(NF6)2,0.10566898334733388
mp-7848,AlPO4,0.0
mp-567075,Bi2MoO6,0.04440391222221507
mp-1078155,SnPPt5,0.01667352999999938
mp-1562,ThBe13,0.0
mp-979262,Tl3F,0.2768979925000004
mp-1093630,LiGe2Rh,2.0634405790625
mp-779778,LiFePCO7,0.06588370077651717
mp-5396,MnCo2Sb,0.0035350931249995554
mp-765798,Li2CoNiO4,0.02437159166665737
mp-780471,LiV2P4(HO8)2,0.05344284400000189
mp-1096427,GaSiTc2,3.045611061249999
mp-782669,Mn4O7F,0.061485517395844624
mp-23918,NaGaH4,0.0
mp-973352,NaCo3,0.6441032274999996
mp-771566,Lu2TeO6,0.08035161833333238
mp-27262,Ca9Zn4Bi9,0.0
mp-1077960,Er2Mo2C3,0.034685007142856605
mp-34,Si,0.3039139799999999
mp-569748,ThFe2SiC,0.0
mp-995238,SnH6CI3N,0.0308425862152788
mp-1078628,Na2HgPb,0.035001055312499973
mp-772194,La3Bi3O11,0.02975213408088173
mp-766423,Li8BiS6,0.08059285066666623
mp-28501,K2(NbCl3)3,0.0
mp-771581,Na3FeSiBO7,0.017212545913446675
mp-12351,PrTe3,0.0
mp-867195,SrOsO3,0.10193889099999698
mp-1097541,Mg2HgPd,1.4039131299999998
mvc-9236,Cr3O7,0.14951607412501744