mpid,formula,e_hull
mp-1093671,NaLi2Hg,0.896113138819444
mp-19681,RbBaMnO4,0.0
mp-771718,Li3Mn2CuO6,0.07170715479166656
mp-530977,Al2CuO4,0.058746229464289534
mp-984726,Dy(Al2Cu)4,0.0
mp-764266,LiMnOF2,0.10103354800001084
mvc-2200,CaMn(PO3)4,0.0
mp-8432,CaCuP,0.0
mp-1016095,LiMn2O4,0.05344019073554751
mp-736446,InH8C8N4Cl7,1.1052277670833321
mp-779848,V5P6WO24,0.05015305689814653
mp-1035480,Mg14FeCO16,0.2267547980859357
mp-566638,KMnO2,0.0
mp-316,MnV,0.0
mp-1096697,YAlCu2,2.386642188214285
mp-778726,Fe4OF7,0.056435353749996864
mp-30365,BeAu,0.0
mp-768164,LiGePCO7,0.04349320382575428
mp-764480,LiMnV(P2O7)2,0.00953522845236776
mp-866197,Li2PrPb,0.0
mp-18846,Na4(CoO2)7,0.0
mp-20354,MgMnGe,0.0
mp-722864,H12PtN6(ClO3)2,0.176134624224197
mp-674149,Ru4Pb4O13,0.0
mp-559674,PH16C6S2NO4,0.2560334594345246
mp-571379,InGa2Cl7,0.0
mp-7041,CaHgO2,0.0
mp-2371,Ga2Te5,0.0
mp-1018657,CaBiAu,0.046588493333334924
mp-1035956,YMg14CrO16,0.13369693703124866
mp-541451,Ga2(SO4)3,0.0
mp-774016,Li2NbV3O8,0.01031428691963221
mp-566483,Na2FeNiF7,0.0
mp-945,NiPt,0.0
mp-545343,LiIO3,0.24782355399999645
mp-626155,H4N2O3,0.5455767496324375
mp-1029868,Sr5(SiN3)2,0.0
mp-972236,V2MoW,0.0
mp-630265,U3(Si3Pd10)2,0.024999301022988973
mp-1028064,Mg14MnNb,0.13183165546874998
mp-773531,Li6V3P8O29,0.02024462936595661
mp-29117,Ta3TeI7,0.00618535268702569
mp-978096,Pu3Au,0.7770272249999994
mp-558448,Pr2Ir2O7,0.0
mp-1017362,Mg6GaSi,0.11688564199999972
mp-765854,Li3V2F12,0.1027957817647307
mp-676874,Dy2Ti2O7,0.15293163106058216
mp-1039058,MgBi2,0.11665485944444455
mp-776765,V3CrSn2(PO4)6,0.042982300208334934
mp-744397,Co2H21S3(NO2)6,0.13401198102899947
mp-994,YP,0.0
mp-19113,CoTeO3,0.04573933766666904
mp-1028248,CsMg14Al,0.19065395427884635
mp-763093,Li2Mn3F8,0.05727974692307836
mp-778306,Na4Fe2C4SO16,0.007550759351853564
mp-13853,P3Ir,0.0
mp-1096728,MnTc2Mo,3.7966775900000007
mp-983550,Pa3Nb,0.18444909874999915
mp-1026581,BaSrMg14,0.147212634017857
mp-863709,Ir3Rh,0.0
mp-1073413,MgSi2,0.2320705192592621
mp-30155,Ce3SiPd5,0.0
mp-9394,U2Cr3Si,0.13820121916666572
mp-1096432,CeSe2,0.4993969125000008
mp-722269,AlP3(HO5)2,0.007571726093747344
mp-24208,CrH2,0.002999017126666281
mp-1093954,Be2PdAu,1.9456538018750007
mp-25539,LiMnO2,0.08029745249999998
mp-1095830,Sr2LiSn,1.5864201253124997
mp-23526,KClO4,0.0
mp-24638,Mg3P2(HO)16,0.018182036756756226
mp-25646,V2O5,0.028665485952378944
mp-27271,Tl8Ge5O14,0.0
mp-768776,LiBiB2O5,0.07343418791666334
mp-641100,UTl2Cr2O10,0.029733760000003606
mp-568800,CdCuSb,0.2074947062500008
mp-31780,Fe4(PO4)3,0.01883501736842419
mvc-4648,Mg(BiO2)2,0.13952963017856668
mp-554659,H12C5N2O,0.15477265212500058
mp-651005,In3Bi7(Pb2S9)2,0.032643162415364024
mp-15931,NdCrS3,0.0008282374999994957
mp-613612,Yb(Fe2Ge)2,0.060227248571428575
mvc-721,YCo(WO4)2,0.03285163979166938
mp-773203,Li4CrO5,0.052042611583331684
mp-531110,Ca9PrF20,0.0496569953333319
mp-1031026,RbLiMg6O7,0.468268399916667
mp-30778,Mg5Rh2,0.0005439305952381623
mp-10275,Er3InC,1.9330775990526328
mp-1074573,Mg4Si3,0.22469827515873145
mp-666,UTe2,0.0
mp-764079,Mn6O5F7,0.06550625284721877
mp-1076132,Ca7MgCo7CuO24,0.1854370561406249
mvc-14448,Ca(CoS2)4,0.10283521480769764
mp-777514,Y2O3,0.08940836749999903
mp-540079,Ni(PO3)4,0.08809718389705967
mp-36007,Ba(NdSe2)2,0.015298921071428497
mp-18594,K3AsSe3,0.0
mp-565589,Rb2CaV2O7,0.0
mp-20590,La3InB,0.2060027198749994
mp-1078402,ScGePd,0.0
mp-773294,Mn4CrO8,0.047284979206722255
mp-1029385,Li2SnN2,0.0
mp-9569,Ca(ZnP)2,0.0
mp-570148,Y11(Ni10C)6,0.017449647857142203
mvc-10772,Sr2GaBi2O7,0.09701551776042017
mvc-10159,CaCr2O4,0.1130223648809512
mp-625948,H7NO6,0.0406338460714295
mp-863294,RbVGa(PO5)2,0.1086585030000018
mp-643791,RbP(HO2)2,0.013304445624998884
mp-631430,LaInW,1.1873807733333326
mp-570404,Ho4CdCo,0.0
mp-1080725,SnH4,0.40116365810400056
mvc-671,W3O8,0.14806807506992747
mp-631354,ReOsRu,0.7712758847222236
mp-1095186,K(NpSe3)2,0.0
mp-768,TmAl3,0.0
mp-851015,LiMn3(BO3)3,0.08982856485675582
mvc-15620,Zn2CrSbO6,0.0939299707500183
mp-768785,LiSn2(SO4)3,0.08835352166666333
mp-699257,CaAl2Si2(H2O5)2,0.22165222888157746
mp-761653,Li2MnSi3O8,0.0824653110714273
mp-32119,Mo(PO4)2,0.0
mp-864765,Na3HfF8,0.011290369484167506
mp-1036714,HfMg30VO32,0.09270644347656276
mp-27514,NaFeCl4,0.0
mp-853151,Li5Mn(Ni2O5)2,0.013483994375000918
mp-1096460,Sc2TcRu,3.1810108703125
mp-1078904,Sb2Te3,1.1463968280000003
mp-556014,Li3Ga(BO3)2,0.010078409999995763
mp-770877,Li3Cr3NiO8,0.04522116003704202
mp-510285,Ti11Se4,0.002842240273504437
mp-569454,CdHgAsBr,0.0
mp-779833,Hf2N2O,0.008216172999995662
mp-1079403,Sr2CoOsO6,0.0
mp-555562,LiIO3,0.149057478999997
mp-30218,Ti2P,0.0
mp-656859,FePH5CO8,0.5914232795312495
mp-20792,Ca2InPd2,0.0
mp-707209,CsH24Rh(SO10)2,4.387489583290716e-05
mp-778639,NiTe(PO4)2,0.05842398166666474
mp-771447,Na3Li3Fe2P2(CO7)2,0.03052750423076667
mp-1096875,CrAgO2,0.09190932000000274
mp-763536,Li4MnSb2WO12,0.07300458050000014
mp-643427,MnH2SO5,0.0
mp-778330,FeOF,0.16531771722222022
mp-977184,NpTcO3,0.6981731759999992
mp-8054,NaSc(GeO3)2,0.0
mp-1026455,Mg14SbMo,0.11679854718749992
mp-770832,Li2BSeO4,0.05743624498373645
mp-769720,La2Ti3O9,0.03933822160712097
mp-1079093,TmSiAg,0.0
mp-1095074,Ba2GdMoO6,0.04391114400001506
mp-1093983,Y2FePd,2.647525272187501
mp-776855,Li3CrH12(CO3)6,0.044413533812499566
mvc-3340,VZnSF5,0.05686358312499884
mp-1094435,MgZn,0.0725514520666668
mp-560974,BeAl6O10,0.0010980677941185846
mp-736665,Hg2H2C2NCl5,0.7325289787152784
mp-850427,LiMnPH2O5,0.09387852174999443
mp-764652,LiFe2(BO3)2,0.05534614562502593
mp-1078931,SrFeAsF,0.13696986250000354
mp-568768,Yb2(CN2)3,0.0
mp-24565,BaHClO,0.0
mp-3388,U(SiRu)2,0.0
mp-4266,KAsF6,9.981499999955899e-05
mp-771493,NaLi2MnPCO7,0.04623380141025546
mvc-12636,Mg(NiO2)2,0.06367617857142971
mp-1096309,Sc2HgPd,2.3148337575
mp-771418,Na2VAsCO7,0.0
mp-1036083,Mg14MnBO16,0.2203139924068757
mp-641509,In9Ni13,0.04343281772727359
mp-1029213,Te2MoWSeS,0.06029433166666731
mp-765502,Li4Cr3FeO8,0.0884805478125017
mp-1097241,Mg2HgAu,1.03844951
mvc-679,YBi(WO4)2,0.020557468541667845
mp-1368,Zn8Cu5,0.0
mp-1028251,Mg14AlCr,0.08668913575000126
mp-644506,NaAlH2CO5,0.0
mp-1026699,CsMg14Si,0.2254104869375
mp-866104,CaCdHg2,0.0
mp-559903,NaLa(SeO3)2,0.0
mp-631489,Be2CdP,0.8593739243749998
mp-1069774,UBRh3,0.0589836081428583
mp-640158,Hf6Fe16Si7,0.0
mp-625635,H4N2O3,0.5288761590768818
mp-25523,Fe(SiO3)2,0.13029507604166568
mp-1096908,CrN2,0.34413482295666503
mp-1026653,NaMg14Cd,0.032662784687500064
mp-684027,Mg3(MnAl9)2,0.019280949347825427
mp-2215,ThHg2,0.0
mp-28279,Gd2NCl3,0.0
mp-772467,Li4Mn3Nb5O16,0.09076318209820933
mp-1080323,CeSe2,0.13855972902777935
mp-30744,IrW,0.0
mp-675078,Ba(FeS2)2,0.09703284000000068
mp-759883,BiOF,0.020656453333331548
mp-989640,YTcN3,0.021002976190665386
mp-780565,Na6Cu2C4SO16,0.03979831655169885
mp-20015,As2PbO6,0.0
mp-554236,Ca5P3ClO12,0.0012747567857127606
mp-866816,CaSnS3,0.4816950317500002
mp-977569,NaH6CN2ClO2,0.005661535192306388
mp-781107,Fe5O7F3,0.09089770125000474
mp-1094837,Ce2Mg,0.08838925111111262
mp-5219,Ho(SiOs)2,0.0
mp-1037884,Mg30MnCO32,0.11778278287109245
mvc-1338,CaCrP2O7,0.03164988522727264
mp-655275,HgC2(SN)2,0.2318551133761213
mp-1096349,MnTlPd2,1.7605561872500006
mp-1039633,CsMg30CrO32,0.11550083382812293
mp-1021693,SrMg6V,0.30680567638392864
mp-545404,SrGd2Al2O7,0.02944289104165243
mp-571264,Ca5Au4,0.0
mp-980645,YErRh2,0.010472000000000035
mp-567483,CdI2,0.0011185557777779742
mp-639826,C2SeN2,0.5393773920792517
mp-5663,BaCeO3,0.040480001000002375
mp-865814,YbMgHg2,0.0
mp-771801,Na2FeBPO7,0.05133095597468973
mp-5694,NaHoS2,0.0
mp-1071720,ScZnPd,0.0
mp-616641,K2UI5,0.0056399024999991285
mp-24968,FeMoClO4,0.0
mp-618958,Ba8V7O22,0.016228007281081425
mp-768086,Na3Mn2P2(CO7)2,0.008404956521726348
mp-1069983,Al3Ru2,0.2406927609999973
mp-615760,Ba5(InSb3)2,0.0
mp-8800,TlCu3Se2,0.01695940166666654
mp-31024,Sc5CCl8,0.0
mp-772280,Li2Fe3SbO8,0.0
mp-775125,Li8Fe3Sn(PO4)6,0.08735156119047449
mvc-3397,Sr2AlGaCo2O7,0.13119958426683365
mp-774081,Li4Mn3Fe(BO3)4,0.00343629645833321
mp-571555,InCl,0.0016072676562499664
mp-911538,Ce3AlN,0.006628197999999586
mvc-10236,Mg(NiO2)2,0.03770999261904874
mp-31453,NbSbRh,0.07468150541666674
mp-861714,Li2VCrP2(O4F)2,0.00016679145834341824
mp-754327,Ho2CuO4,0.05257998892858407
mp-531956,Hf3Sc4O12,0.016454520789471516
mp-17835,Sn2Sb2S5,0.01853821805555621
mp-1097111,NaYTl2,1.65996285875
mvc-2192,YFe4(CuO4)3,0.02733220937498704
mp-777711,LiFeBO3,0.001137978333331624
mp-767771,P3W2O13,0.010434225509294848
mp-631395,CaTaTc,1.3801927133333338
mvc-1040,BaMn4O8,0.3150951726121756
mp-567856,MnAsRh,0.0
mp-1075810,Mg3Si2,0.13466233216666668
mp-850164,Li4Co3Ni3(SnO8)2,0.01748828348738929
mp-10032,Ge2Os,0.0
mp-568856,Mn3As2,0.07157570250000056
mp-691119,Bi14MoO24,0.0
mp-864977,Dy2AgOs,0.0
mp-605867,CeIn7Pt2,0.07794956000000043
mvc-7625,CaSnAs2O7,0.1170308770454538
mp-1099934,CaCoO3,0.15802215800000408
mvc-10962,CaCr4O8,0.09762436929487173
mp-867276,DyCdPd2,0.0
mp-621864,Si4Mo2P4O23,0.0
mp-1002165,GeC,1.27067137375
mp-10504,ScB4Os3,0.0
mp-651723,C5N4,0.5574509358866669
mp-1021425,RbMg6Sn,0.2355033239062503
mp-3020,BaNbO3,0.0
mp-764425,LiY3WO8,0.0927261418269172
mvc-10836,Sr2YSb2O7,0.33409969143333296
mp-30427,BaZnBi2,0.0044530234615374215
mp-1057622,Sc,0.003205269999999593
mp-28871,In3SnI5,0.00047377361111156086
mp-774941,Li(NiO2)2,0.0
mp-1095485,BaGe(PO4)2,0.0
mp-2488,SiOs,0.01194814333333305
mp-669556,Pu5Pt3,0.1392205329179692
mp-849982,Ta2CrNO5,0.06525066833333604
mp-753316,Li2AgF5,0.06539696124999761
mp-622353,La4(CoO3)3,0.056346095312500566
mp-743954,MoH12N3O5F3,0.32426081269354423
mp-571250,TaP2Se2Cl5,0.0
mp-621921,K3Fe(CN)6,0.12711283750000124
mp-756666,BaCaI4,0.06620783937500008
mp-1021487,Mg6TiC,0.7679914500000002
mp-763131,Li4Fe3Co7O20,0.1247526583363978
mp-765566,LiAg2F6,0.02143145407407588
mp-777215,Mn4O7F,0.0625684328125109
mp-763736,LiMn4(PO4)3,0.053595380374996886
mp-772242,LiVPO5,0.05769755375001129
mp-555495,K3Y(BO3)2,0.0
mp-973629,LuAlPd,0.0
mp-765520,Li4V5O9F,0.06318420348684127
mp-767726,Li2Fe2Si3O10,0.04450390264703774
mp-770111,PrBiO4,0.01555475125000161
mp-865283,Tm2AlOs,0.0
mp-616166,Ba2Ho(CuO2)3,0.004360493749993033
mp-7761,Sb,0.2342783950000001
mp-13196,SmSbO4,0.0
mp-600507,MnH10CNCl3O2,0.027587348958333813
mp-6475,NaZr2(PO4)3,0.0
mp-566279,TmFeO3,0.0
mp-1080443,YCu,0.0
mvc-7568,Mg2Ti3O8,0.04411365384617305
mp-863300,Na2VSi(W2O9)6,0.8205533529196432
mp-863877,Li4V3P8O29,0.04891294303030147
mvc-1473,YFe3Se2ClO8,0.0221389367473952
mp-5899,NdAlO3,0.0
mp-560504,Rb2Sb2OF10,0.0
mp-1099202,KMg14CrO16,0.12439990374999965
mp-30805,SrNiSn3,0.0
mp-715008,Mn5O8,0.028538283750000563
mp-7474,Cu2As,0.0200350183333331
mp-1091,SmAu6,0.0
mp-2657,TiO2,0.03671018083334586
mvc-16539,CaLaMnFeO6,0.0
mp-770674,Li9V12Fe7O48,0.06423997758223532
mp-1100516,Li9Mn7O16,0.024910578437518538
mvc-12115,CaMn4(CuO4)3,0.017133323250000387
mp-756942,Ba3(BrO)2,0.03701659035713867
mp-777900,Li3FeF6,0.028403016833343564
mp-641487,EuMn4(CuO4)3,0.015696807562507686
mp-753304,Hg,0.012395859999999979
mp-1097365,Ba2ZnAg,1.40232409375
mp-18996,TlV3O8,0.0
mp-1033983,RbHfMg14O15,0.28441495076613066
mp-1097217,Y2AlTl,2.57681898125
mp-1094887,CeMg,1.0566383683333336
mp-646420,Nd2InRh2,0.020290493333334325
mp-549737,Ba2Ca(BO3)2,0.0
mp-7249,Ba3Nb2ZnO9,0.0
mp-1016267,CsMg6Cd,0.29108674875
mp-761974,LiCoPO4,0.044752401488096887
mp-31801,Al2FeO4,0.14494180285715252
mp-1038118,CaMg30SnO32,0.07414734667968759
mp-859782,Co2SbO6,0.09148372208333287
mp-752726,BaLa2O4,0.04130444357142693
mp-30321,Y2P4O13,0.0029586698684269663
mvc-839,Sr2FeCu2O7,0.13009989812500145
mp-761610,LiMnPO5,0.039628074557288784
mp-780019,Li2MnFe(BO3)2,0.005051011388886195
mvc-812,Sr2AlCoCu2O7,0.07975766243131321
mp-15514,NaSe2,0.0
mp-1094461,MgZn2,0.09001103250000053
mp-28661,Ba2Cu3P4,0.0
mp-554190,CaZr4O9,0.0024226730357241877
mp-8311,Si3NiP4,0.0
mp-735504,KVPHO6,0.0
mp-572902,Cs2CeAsS3Cl2,0.020597858888887544
mp-767859,Li12CrCo3P4(CO7)4,0.05207268740534765
mp-571093,BaAlSiH,0.0
mp-685675,Li26(B24O)3,0.04862341827875216
mp-764618,LiFe2(BO3)2,0.058940865170479924
mp-1096472,MgGaCu2,1.465545247160494
mp-3707,CaGe2O5,0.005762026375001561
mp-1032588,BaYMg6O8,0.4796628927343756
mvc-5864,MgMoAsO5,0.1606378544335918
mp-764156,Mn3(O2F)2,0.0621709588888919
mp-1077802,UGaCu,0.0
mp-1027545,Te4Mo3W(SeS)2,0.09490113916666763
mp-16152,Pr2Te2O7,0.10988941204545366
mp-1038385,Mg30AlFeO32,0.0510706110546888
mp-613652,PbClF,0.25402629833333545
mp-30717,KHg2,0.0
mp-753353,Sr4LiCu(CO5)2,0.0
mp-530749,U7(Te12O35)2,0.02852400561881296
mp-773691,LiFe(SiO3)2,0.03569534612498248
mp-33029,Nd2O3,0.9301370564999996
mp-762490,LiFeP2O7,0.05415095954545457
mp-11152,SiSbPt,0.0
mp-850964,Li3CrO4,0.0867060487499991
mp-1020716,Rb3B(SO4)3,0.0
mp-15963,HfPRu,0.0
mp-771568,SrCa2I6,0.08834603611111147
mp-1023211,CaLaMg6,0.14182419880681876
mp-685242,Sr7Al12O25,0.10887259270360784
mp-770879,Fe5Co(PO4)6,0.06197058493055519
mp-1098876,Mg30CoNiO32,0.012326217838541707
mp-4437,NdTe2Se,0.0
mp-1026418,HfMg14Sb,0.07699331046875013
mp-1017554,CdNi3N,0.0
mp-569881,Sr(NiSb)2,0.0
mp-762492,Li2Fe(PO3)4,0.04783659043860666
mvc-3479,YBiO3,0.11909419074999936
mp-4744,Ca(NiAs)2,0.0
mp-1031514,LiMg6AlO8,0.05686442921875035
mp-984357,CsKO3,0.6706103879999974
mp-973930,NpBeO3,0.4495291119999987
mp-22166,Co3Mo3N,0.004856775758927512
mp-1028386,HfMg14Co,0.1683391687500002
mp-767094,LiFe2(PO4)2,0.08282450355766713
mp-20655,SmGeRu,0.012342144166668234
mp-767597,LiMnF5,0.023519021577383725
mp-1066394,AlCuTe2,0.6299313937500002
mp-986,CeZn,0.03671185374999997
mp-1097229,NaIn2Bi,0.8499301875
mp-23112,AsS3(ClF2)3,0.03698622554487585
mp-16731,YP,0.55056102
mp-865142,DyMgZn2,0.0
mp-754597,LuTlO3,0.08399248362499989
mp-680136,Cd13(In13Se27)2,0.04445571540658655
mp-757493,Ti11H7O24,0.09414037444380874
mp-1096272,MnNb2Ru,3.9338247222727287
mp-768185,Ba4Li4Ti19O44,0.04763354779930218
mp-1068333,SrTcO3,0.0028413929999979715
mp-699008,Rb2MnV2(ClO3)2,0.2702975638461478
mp-21560,CuAs2PbO7,0.02588420977271433
mp-639436,K5V3F14,0.02611052068181952
mp-12516,NdZnSbO,0.0
mp-764129,Li9V3P8O29,0.027146672346940008
mp-867189,Pm3Pb,0.0
mp-758897,LiCuPO4,0.09853855642858456
mp-550314,Rb4CO4,0.26545599666666586
mp-1097702,Be2PdRu,2.9694066766666665
mp-532704,K2YHf(PO4)3,0.0
mp-6300,RbHgSbSe3,0.0
mp-15955,Y(BC)2,0.14538527699999906
mp-17488,Tl2Fe3S4,0.08592535388888932
mp-862367,Sc2NiRu,0.0
mp-1017370,Mg6GaSi,0.132344448125
mp-733675,K6Na15Tl18H,0.016313820250001054
mp-1018098,Ba2BrN,0.0
mp-774752,Li2MgTi3O8,0.0
mp-772017,Ba3La2Cl12,0.07641673705882203
mp-643052,CuH6(NO)4,0.2513341258653323
mp-1039304,CeMg2,0.017105552222222542
mp-770541,Mn2PO5,0.05894986687500747
mp-31113,Dy3GaO6,0.0012047717999976724
mp-1038937,Ca2Mg,0.08483395250000081
mp-1080576,LiB,0.6190749575000001
mp-568083,LaNi2B2C,0.0
mp-1078588,BaTaSe3,0.02668801200000015
mp-780181,Na2Cr4O13,0.08413565286184177
mp-762413,Li3CrSiO5,0.09500473949999576
mp-1022526,KMg6Co,0.3180883517187503
mp-29622,Ba(MgSn)2,0.0
mp-19306,Fe3O4,0.0
mp-559159,Cu4As2O9,0.014592893666667273
mp-1096965,CrN2,0.35312511694476
mp-675577,Mn(InTe2)2,0.0
mp-865147,Be2CuRu,0.0
mp-735488,RbNa3Mo2H18O17,0.005372458292686844
mp-1079240,LiAl,0.10194343625000092
mvc-2867,Mg4Ti5(TeO6)3,0.2504734353888898
mp-251,TaN,0.32676816833333433
mp-565860,TlVH6SO9,0.015471617722229603
mp-849987,FeH10N2Cl5O,0.0
mp-676855,In(HO)3,0.0778335042857119
mp-778915,Ca5W3O14,0.02888727374999966
mp-767152,Ba3Fe3O8,0.030646557457430387
mp-649492,V2PbO6,0.12045313611111208
mp-680095,CdI2,0.0017453047222224516
mp-8976,Cu2WS4,0.0035225816666661913
mp-555808,Zn8B3H3O14,0.01996601138392773
mp-1013917,LiMn3P3O13,0.023850210249999115
mp-1027977,LaMg14Zn,0.06901721773437486
mp-4881,Er(SiNi)2,0.0
mp-14648,NaZnPO4,0.008376669285725669
mp-865124,NaSr2In,0.01113704933823545
mp-20061,GePt2,0.03115829763888912
mp-570609,TlGaCl4,0.0
mp-1029,BaF2,0.0
mp-1076470,Sr2Ca6Co7CuO20,0.03793318854167982
mp-15385,Na2UP2O9,0.0
mp-601286,TbCuPbSe3,0.0
mp-774369,Li3V12O29,0.039134716363651734
mp-568812,CdH16C4(NCl2)2,0.03441336379629688
mp-779905,Li3Mn2Fe(BO3)3,0.0025935651851876074
mp-553974,Ba7Fe6CuF34,0.0007324447395831157
mp-866186,Ti3Zn,0.00953424333332542
mp-763239,Li4CrP2(O4F)2,0.06204549016106764
mp-1039849,NaMg30BO31,0.08894262883419213
mp-571627,CaCl2,0.10641502750000063
mp-504691,LiMnP,0.11882642722222235
mp-850081,Li4Mn7(PO4)6,0.07374497597560302
mp-1001614,LuCoC2,0.0
mp-672696,Hf2Nb3Ge4,0.0
mp-776706,Li9Cr4C8(SO16)2,0.07619460555682256
mp-27366,KNiCl3,0.0
mp-980941,Ti3N,1.3506737420833332
mp-1026768,LiMg14Bi,0.04175941999999999
mp-766269,ZnPH5C2N4O3,0.06174366576401536
mvc-4223,Ti2Zn3(GeO4)3,0.21015772037500025
mp-740710,Na2LiP3H8O13,0.033940865462958485
mp-1023403,Mg6ZrAl,0.13182941593749975
mp-1094595,Mg2Sb,0.16258517083333324
mp-573282,La2Ni22C3,0.011282896018515842
mp-23444,AsCl2F3,0.0
mp-1039441,CaMg2,0.1525035541666664
mp-780518,Li5(NiO2)4,0.06442500794117567
mvc-12822,CaV2(BiO5)2,0.12749816775000067
mp-781772,Li2Mn3VO8,0.0631642214285435
mp-752713,HoBO3,0.0
mp-771609,LiTiV3O10,0.0701274350000265
mp-31421,PrAgSn,0.0
mvc-4333,Y2Si3(NiO4)3,0.2588778721875009
mp-1028291,Mg14TiSn,0.05355712275000002
mp-708969,P2H24PdC12(BrN3)2,0.2237692979475608
mp-1018764,Li3HoSb2,0.0
mp-1013760,Sn5(S2Cl)2,0.08900297795454559
mp-850077,LiMn2(BO3)2,0.07170500689393577
mp-24212,RbP(HO)2,0.0
mp-979931,YNbRu2,0.0
mp-853264,Na14Co2O9,0.015088936799998898
mp-5921,TaAlNi2,0.012493751249999184
mp-771623,Li5Mn3(PO4)4,0.011012554910714734
mp-3208,ZrGeTe,0.0
mp-759290,Li3Bi2(PO4)3,0.08236281275000312
mp-642803,Zr2HBr2,0.024598944499998332
mp-849695,Li2FeO3,0.1123337650000007
mp-769922,V2SiO4,0.03794079357142977
mp-866003,ErI3,0.0
mp-5816,UBC,0.0
mp-13554,SnHgO3,0.06369716150000038
mvc-740,Ta(WO4)2,0.18847501980769368
mp-31653,Cr2P5O16,0.012138292201081313
mvc-4137,Zn2SbWO6,0.18331175124999527
mp-849464,Li3Mn5(CuO6)2,0.0815040921185064
mp-37621,Al2CoO4,0.027172249999999558
mp-541695,W(CO)6,0.46420408
mp-782062,YNb2NO5,0.08143410111111038
mvc-6533,Ca(WO2)2,0.2819060357142842
mp-1019360,ThPSe,0.0
mp-28066,ThBrN,0.0
mp-1019791,K2Zn(PO3)4,0.0
mp-20063,Li3Ce5Ge4,0.20282110354385807
mp-20118,Cr2AgTe4,0.0
mp-561318,Ba2AlCu2F11,0.0005923068854061242
mp-16620,LuAl7Au3,0.0
mp-9047,RbBS3,0.0
mp-778594,Na2V6O15,0.04090187173912163
mp-566572,SrVSi2O7,0.003322885386362273
mp-1098742,Mg30MnNbO32,0.06108639004080362
mp-31955,LiMn(PO3)3,0.0
mp-1080269,CeSe2,0.536559876250001
mp-19587,UCrO4,0.0
mvc-16029,Ca(TiS2)2,0.04427020714285312
mp-850231,Li2TiFe3O8,0.029462389776783837
mp-984697,EuLu2O4,0.020820502678574826
mp-759735,Li2Bi(PO3)5,0.07684463634057348
mp-1093886,Ta2MnRu,4.2826247784375
mp-22263,Yb3SnC,1.5198033463333338
mp-720410,K2NaCa2TiSi7HO20,0.0
mp-29732,Ta2Mn4Si5,0.3063163774999982
mp-6662,NaSr3IrO6,0.0
mp-765845,LiVF3,0.0793370989999973
mp-647205,Sc2(Ni7B2)3,0.0
mp-555740,SiO2,0.03222525916666541
mp-767312,Fe13O15,0.1841521558928605
mp-961662,ZrNiGe,0.7180750339843787
mp-21075,HfC,0.0
mp-1080018,Th(CoSn)2,0.030975533333333694
mp-1055940,Cs,0.0
mp-1016645,Mg6SbMo,0.2682956068750002
mp-102,Co,0.019153610000000043
mp-850930,Li3MnF5,0.04645102027777792
mp-540480,V2(PO4)3,0.021951946470601055
mp-864624,HoZnRh2,0.0
mp-1079582,VIr,0.013799201250000335
mp-9478,BaSi4O9,0.03205001482142755
mp-18014,Th7Fe3,0.0
mp-680564,Ce2Mg17,0.02983929078947645
mp-504102,Li(NiO2)2,0.006425226785715664
mp-18483,Rb6Si2O7,0.0
mp-764542,Li5Fe8(BO3)8,0.04649045004167007
mp-19533,Al2Fe3(SiO4)3,0.016262578000002748
mp-973471,KReO3,0.028335302285717567
mp-764430,Li2MnF6,0.026637841481480958
mp-1098485,NaMg30WO32,0.03465130054687472
mp-19635,Sm4Mo4O11,0.11780753074014072
mp-695797,Eu2H6Ru,0.004833372222222465
mp-754250,NaLuO2,0.0069570756249879295
mvc-3696,Ca3Mo2O7,0.004327110833333593
mp-1038972,MgCd,0.04265153250000031
mvc-6844,Ca(SnO2)2,0.13384494178571327
mp-996980,AgAuO2,0.005244981249999725
mp-647840,Fe2C8SO10,0.5632877558333345
mp-615243,KCrF4,0.0
mp-720571,CaH8(ClO2)2,0.019106047111110414
mp-767452,Mg3Mn4O7,0.041126881428572126
mp-1025447,TlCu4Se3,0.02383487312499977
mp-1022698,Mg6ZrFe,0.19887681174999905
mp-773174,LiCr4O12,0.07955852958333587