mpid,formula,e_hull
mp-18742,Sr2CaWO6,0.047703340499984925
mp-570150,CaAlSi,0.0015037522222209887
mp-1078692,PrAlCu,0.0
mp-561627,Na4CoO3,7.916250000761238e-05
mp-762231,Fe41O56,0.2100110105670101
mp-19741,CeNiC2,0.009027338472223256
mp-22912,NpBi,0.1310896981250007
mp-757142,LiNb(PO3)4,0.10879845741136672
mp-685957,Pr3(ZnAs3)2,0.2967323715482957
mp-756093,Na12NbO7,0.09755434199999867
mp-1064933,S,0.3420586259374998
mp-977408,NbTlO3,0.09010596875000054
mp-10994,TmCuAs2,0.0
mp-777195,LiFe7(O3F5)2,0.09086839442129424
mp-697799,LiNiP2O7,0.05846651452651753
mp-11819,BaSnHg,0.0
mp-1037480,YMg30CrO32,0.06762679351562627
mp-1357,P3Rh,0.0
mp-32065,MoP2O7,0.03242611475000423
mp-695383,K2HS2NO6,0.023460786805929786
mp-705960,Mg(FeO2)2,0.02898377653062845
mp-782065,LiTePO5,0.04364190546875157
mp-542914,K2Co3H6S3O16,0.0
mp-991976,NbCo2Sn,0.12753815499999988
mp-38489,LiCo7O8,0.07600918874999962
mp-567037,ZrMnTlF7,0.0
mp-761473,V2Bi4O11,0.01087843720585635
mp-754524,CeTiO3,0.08659253799999966
mp-979981,AcYbGa2,0.0
mp-862832,PaTlO3,0.0
mp-694881,NaNd3Ti3MnO12,0.05226251475000332
mp-721161,MgPH16NO10,0.0015007663546757757
mp-10213,YGe2,0.11286504388889007
mp-1016570,BaMg6Ga,0.16593791343749986
mp-863654,Pm2CdSi,0.0
mp-565489,Cr8O21,0.02394130564655228
mp-23617,Mg3B7ClO13,0.00996617083333362
mp-677136,LiCa3Zr3TaO12,0.006778903208330078
mp-771868,Li4MnNb(WO6)2,0.029388004884610908
mp-20253,InSb,0.12096812249999946
mp-1098691,NaMg30MnO32,0.01667294328125024
mp-16431,Nd(FeP3)4,0.0
mp-850953,Mn12O5F19,0.06366664211806672
mp-6319,Na2MgAlF7,0.0
mp-777091,Li2MnVP2(HO5)2,0.020941974768504682
mp-22945,TeRhCl,0.0
mp-593,Al4Cu9,0.0
mp-17578,Yb4Ge6Ir7,0.0
mp-39542,KRb2ZrOF5,0.021068709749997968
mp-7716,SbTe,0.8535579491666658
mp-2513,As2Pt,0.0
mp-743879,CrP2H15N2O11,0.02157867572580674
mp-504742,Pr8Ga3Co,0.0
mp-773455,V2SnO7,0.0
mp-6227,Ca2ZnSi2O7,0.015509873333334312
mp-604594,Ce2In5Pd4,0.016442141363637752
mp-1078675,La2HfNiO6,0.17910252325002496
mp-754445,Li2Ti(BO3)2,0.08600916688311155
mp-24051,ErHCl,0.0
mp-571297,AgN3,0.3584911494650003
mp-6088,LaCuSO,0.0
mp-1027015,Te2MoWSeS,0.11647367416666655
mp-1002181,TcN,0.09518755166666716
mp-7444,RbSb,0.0
mp-655631,FeBiO3,0.42797176124999936
mp-1022088,Mg6CoB,0.14366828906250007
mp-973592,Ho2Ge2O5,0.7106096577777787
mp-866308,CaB2(H7N)2,0.0
mp-1023266,Mg6AlGa,0.06051687668269245
mp-776057,TiCr2Ni3(PO4)6,0.09044100291665023
mp-1027472,Mo3W(SeS3)2,0.01094839666666658
mp-767944,Li3Co3NiO8,0.12898722933333584
mp-917359,FeCu2GeS4,0.04140218374999627
mp-763945,V4O5F7,0.04648855875001789
mvc-12205,Fe9O13,0.1890886654545572
mp-1026719,RbMg14Si,0.1707449406249999
mp-1095883,Ti2TcMo,3.9827529130555552
mp-567185,SnHg6(As2Br3)2,0.0
mp-4998,Sr2IrO4,0.0
mp-1028186,NaCaMg14,0.062142676874999976
mp-567065,Fe2(Se2O5)3,0.0
mp-1098415,LiMg30CO32,0.1352582268261706
mp-29907,Te4Pd9,0.0
mp-770515,Li4Co2C4SO16,0.07609764029629051
mp-25701,Mn2GeO4,0.0
mp-3520,Y2SiO5,0.0
mp-582034,SiC,0.00015710559523807172
mp-4449,Tl2SeO4,0.0010594850000016363
mp-781616,LiMn2(BO3)2,0.07930860136363194
mp-1019793,K3La(PO4)2,0.0
mp-570951,Ti(AlCl4)2,0.0359320170454529
mp-22324,TbGePt,0.0
mp-1026989,Te2Mo3W(Se2S)2,0.07878818583333302
mp-14795,K6CoSe4,0.02910736506733969
mvc-1104,Ba2AlSn3O7,0.6020070784134619
mp-35205,LiErSe2,0.017599122499999176
mp-770760,Li2TiVO5,0.03024537152777285
mvc-14934,CaFeWO6,0.14061059354166794
mp-541830,UCo5Si3,0.013352000730994185
mp-27312,Nb2SeF14,0.0
mp-567114,Sr(BiPd)2,0.0
mp-14292,Ba2NdSbO6,0.004393283999998943
mp-763265,Ni(PO3)3,0.04117087649037909
mp-763074,FeOF,0.0927406444444454
mp-1096426,CsNa2Bi,1.0030893475000004
mp-649654,KVS2O9,0.0
mp-29178,TePbF6,0.0
mp-766070,LiNiPO4,0.09550358535714663
mp-762961,Li4V3P8O29,0.05127760871212583
mp-28431,Sb(IF3)2,0.0
mp-605196,CsCu3As8H24C8(IO2)4,0.13658083534226328
mp-769036,Li8Nb2S9,0.04244065565789601
mp-850965,Li2Mn3(BO3)3,0.05326098112743338
mp-637201,Mo2P2O11,0.016765991833331384
mvc-16806,LiCr2O4,0.11184159896824576
mp-10430,Nb5(NiP)4,0.0
mp-1028371,Mg14CoC,0.34005980156250004
mp-1095864,Sc2GaRh,2.65123402875
mp-770340,Li4Cr3CoO8,0.009412794375000644
mp-17612,Ba2SiO4,0.0
mp-978557,SmDyHg2,0.0
mp-769643,Y(Bi3O5)4,0.05813298863637153
mp-13195,NdSbO4,0.0
mp-18562,Na2Si2Se5,0.0
mp-1094291,ZrSn,0.3112644529166655
mp-31109,Ho12InPt7,0.0
mp-622901,Co6C13(SO6)2,0.4713405383522762
mp-39020,LiTa3N4,0.0
mp-19872,UAl2Cu,0.4546565562152773
mp-21237,CoGe,0.0
mp-25702,Mn2GeO4,0.02625875142863876
mp-853171,LiV3OF11,0.04477250980469627
mp-1080123,Ba2LaIrO6,0.002635834000000337
mp-600174,H4Pb(CO3)2,0.06818231384615547
mp-775510,Mn3SbO8,0.05427858579861233
mp-697114,MgH12SO9,0.3384374365595466
mvc-11612,Mn2ZnO4,0.061849452857147824
mp-30774,MgNi2Sn,0.0
mp-861977,PaGaNi2,0.00686050416666717
mp-850037,MnS,0.0
mp-29476,Cu3SbSe3,0.035305073214285436
mp-19187,Na2ZrCo(P2O7)2,0.02675144332071344
mp-30498,TbCd3,0.0012219512500002414
mp-1019736,CsEu(PO3)4,0.0
mvc-13220,CaV2P2O9,0.0
mp-555656,CuC2S2(OF)6,0.1760909332352929
mvc-15380,Zn2CuN2,0.19005064744160016
mp-647285,NaMg2V3O10,0.0
mp-770056,Mn4CoO8,0.04674474326923672
mp-556253,Tm2O3,0.0513369595833364
mp-777194,Li2MnVP2(O4F)2,0.02082898578122005
mp-714960,VO2,0.158950823333333
mp-775613,NaMnPCO7,0.010193030681818982
mp-13138,Cu3Sn,0.01945463375000056
mp-761329,LiMn(SiO3)2,0.07803579128571325
mp-638079,Gd2In,0.0
mp-1040391,KRbMg30O31,0.15789319295635007
mp-35712,Mg(GaO2)2,0.004177397380953352
mp-680153,CdI2,0.0014715594285714673
mp-24381,H5ClO2,0.009221502812470916
mp-765048,LiV2OF5,0.0445694298148176
mp-770578,GeWO4,0.1944736941666676
mvc-8028,Zn2Cr3O8,0.05626143538461559
mp-767277,FePHO5,0.0926019498437558
mp-632348,YbHO2,0.10270082765624976
mp-777708,Mn12O7F17,0.06070330052083861
mp-773288,Li3Fe2CuO6,0.028185254166665175
mp-1078996,Nb3Si2,0.019278030285718728
mp-752401,Rb2ZrO3,0.027419885833333886
mp-567841,Be3P2,0.0
mp-1281,VIr,0.024040165000000613
mp-761777,Li2CoNi3O8,0.012538640178572535
mp-24273,CdH20C4S4(NO6)2,0.20087646860880426
mp-771073,Li4Mn3Co3(CuO8)2,0.058203777083326365
mp-763123,FeOF,0.0707473908333327
mp-39689,CaLaMn2O6,0.0021639230000243263
mp-1099704,La7SmMn7FeO20,0.09624302914930816
mp-862865,PaZn3,0.0
mp-11912,NaNd2IrO6,0.0
mvc-6767,Zn2NiWO6,0.17649111350000002
mp-567586,Nd17Au36,0.0
mp-560545,Na2Ca(AsO3)4,0.01854735921052697
mp-567056,Er2WO6,0.0015234654166640382
mp-11011,RbNdTe4,0.0013495897619053565
mp-978995,TmMnRh2,0.01318309250000027
mp-1098134,KMg6W,0.4304488112499998
mp-698358,NiH10C4(SN4)2,0.0
mp-553966,Li(CuO)2,0.012015530999998523
mp-754660,LiFeS2,0.1994786968749996
mp-6330,RbUN3O11,0.0
mp-1096798,ScAgO2,0.10742842750000214
mp-31452,ZrNiBi,0.0749107383333314
mp-1039906,SrMg30SiO32,0.11562736374999982
mp-531195,Sr2NF,0.0
mp-780154,Li4FeO3F,0.08033735138889941
mp-1018077,ErGa,0.0
mp-865671,Y2ZnIn,0.0
mp-8196,AgNO3,0.030785982999983474
mp-22872,SbCl3,0.0
mp-775390,Li2Mn2Ni(PO4)3,0.06975693875001099
mp-696089,ZnH20S2(NO7)2,0.016300033461538632
mp-1093586,Hf2VTc,4.03517141875
mp-14638,Rb2LiGaF6,0.0
mp-775891,Mn3Fe3(SbO8)2,0.08336668018229165
mp-8857,Cs2As2Pd,0.0
mvc-12278,CaV4(CuO7)2,0.07623876992063483
mp-43,U,0.10065619300000073
mp-1096509,Sc2TcRh,3.0238493602083345
mp-773347,Li2MnFeO4,0.02481188187501271
mp-675564,La2Th8O19,0.02185020999999665
mp-27529,PI3,0.0
mp-30874,Th5Sn4,0.00021012333333469968
mp-780805,Fe5(OF4)2,0.12547418700000354
mp-976031,NaAc,0.1729146237500001
mp-23202,InI,0.0
mp-531119,Ta2Zn4O9,0.03834921133333325
mp-614050,RbFeF4,0.0
mp-570751,Nb3Te,0.05225005562500051
mp-864898,Na2TlBi,0.0
mp-1094695,YMg,0.13687025499999986
mp-979932,Sr3SiO5,0.020584771666666942
mp-556215,K9Li3I2O13,0.054652717870371965
mvc-9001,MgCuBiO5,0.10353376828124894
mp-1079356,NbCrN3,0.40768948421919937
mp-770715,Ga2WO6,0.09190879194443724
mp-1133,V5S4,0.0
mp-5711,Pr7Al7Co6,0.04373394874999992
mp-767445,LiVFeP2(HO5)2,0.005251307147060125
mp-5591,U(NiGe)2,0.0
mp-559976,Ta2CS2,0.009611006000000087
mp-764276,Li2Mn2F7,0.10243273272726673
mp-761590,LiNiP2O7,0.09109226702651796
mvc-1805,YMo3Se2ClO8,0.42345028213195146
mp-561909,V2CdO6,0.0
mp-541780,CoH2SeO4,0.017903417395835675
mp-781783,Fe6OF11,0.03237921499999885
mp-560008,PNF2,0.0
mp-1034728,CsCeMg14O16,0.3548257296153832
mp-555979,Li2Pr(NO3)5,0.0
mp-1080860,CeSe2,0.5460271127083347
mp-3955,AlPO4,0.008828798333333944
mp-25778,K2NiH12(SO7)2,0.0
mp-540430,CrP2O7,0.10939810306250043
mp-566468,Er2V2O7,0.007098704545455803
mp-775788,Hf2N2O,0.08661219574999457
mp-4513,Ho2Ga8Co,0.0005080468181803964
mp-775233,Cs2MnO4,0.041939465357142325
mp-1036182,RbMg14MnO16,0.17216632880208405
mp-2798,SiP,0.0
mp-768863,PrAsO4,0.0
mp-560863,ThSe2O7,0.0
mp-375,UO3,0.0
mp-30030,Zn6Ni7Ge2,0.027717247234234854
mp-573588,CdI2,0.007345793555555422
mp-744386,Al9Fe2Si4HO24,0.05808941333333361
mp-766134,UH12(NO7)2,0.008069170258618641
mp-10637,ThSb,0.09393022499999937
mp-21625,Y2(Ga3Co)3,0.0
mp-695452,K2Al11Si13(Ag3O16)3,0.12817025680723315
mp-866290,DySnRh2,0.0
mp-1093987,La2MgIn,2.3642270504166683
mp-1096521,Al2FeCu,2.360010365679348
mp-20597,TbMnSi,0.06471156333333461
mp-780867,Mn8O13F3,0.0717557090104215
mp-1030331,Te8Mo3W,0.00769702395833427
mp-704617,InCuPO5,0.03455688718749972
mp-1097161,SrYPd2,1.88579079
mp-21215,InPd,0.003042464722222249
mvc-6996,MgTe2O7,0.23721221450000216
mp-567415,Nd2B5,0.0
mp-1080292,CeSe2,0.5227553112500001
mp-764623,Mn6O5F7,0.07416615923612291
mp-558911,Cs2Co3S4,0.02689619761904449
mp-684675,V12P7,0.0
mp-567626,MgZn2,0.1388420175000007
mp-555871,Na2CuSbS3,0.0
mp-774093,Li2MnV3O8,0.0733171037946505
mp-1026567,CsMg14Bi,0.21040175062500024
mp-766808,Li4Mn8O13F3,0.04226519920919269
mp-582572,ErNiGe2,0.0
mvc-5565,MgCrAsO5,0.1140045355208219
mp-752895,Li3CuF4,0.0972158553125002
mp-1017555,CsBeF3,0.6652543454999993
mp-645953,Fe5Te6(ClO9)2,0.0037194609332118493
mp-1031367,KLiMg6O7,0.4218191971666654
mp-21844,UTl3,0.2409925312499989
mp-1027614,Te2Mo3W(Se2S)2,0.0572402408333339
mp-1096139,LiCd2Ni,1.34304980625
mp-1636,Mn3Sb,0.10999266624999836
mvc-14449,Ca(NiS2)4,0.11609877701922945
mp-573743,Ce3CI5,0.0
mp-779213,Li6MnFe5(BO3)6,0.005002885324076446
mp-1099228,RbHfMg14O15,0.2274394994758077
mp-765511,Li6VO5F,0.07193903999999929
mp-8230,Zn(PO3)2,0.012957297500003406
mp-981988,Y(Mg4Al3)4,0.03193717969496124
mp-1079166,Tb(GePt)2,0.0018126165000023067
mp-13791,BaNaNd(SiO3)3,0.0020034881666646247
mvc-2433,Ba2V2ZnCuF14,0.008495103500005818
mp-762056,Fe3Co2Ni(PO4)6,0.0945863623090295
mvc-14217,MoF5,0.05167619833333337
mp-703253,RbFeSe2O7,0.0
mp-4883,Ba(FeP)2,0.0
mp-1028109,CaMg14Cr,0.11256054781250002
mvc-4269,Zn3Ge3(BiO6)2,0.25516064274999195
mp-5506,Ba(AlSi)2,0.0
mvc-11425,CaNi2S5,0.12717648562499928
mp-778285,Li4Mn3Cr3(CoO8)2,0.06089865224704383
mp-766325,BaCaI4,0.05174573354166645
mp-32356,LiNi2P5O16,0.07503165473958172
mp-8299,Sr4As2O,0.0
mp-12743,CrTe4Au,0.0
mp-1039032,CaZn3,0.10016400291666994
mp-30464,Bi2Pd5,0.0
mp-1078973,Sr(InP)2,0.0
mvc-521,Ca2Nb2MoO8,0.14022315346153924
mp-1073575,MgSi2,0.29543656509259497
mp-760179,Cu3(OF)2,0.040112563571430115
mp-570801,Y3(Ge3Pt2)2,0.0
mp-1037533,Mg30ZnNiO32,0.0027351938281254817
mp-23144,TlRe3(Se2Cl)2,0.0007866065000019518
mvc-6185,Ca2YMnO5,0.12448209259258025
mp-1022793,CsYMg6,0.31726670250000044
mp-763751,LiCoNiO4,0.06053243928571472
mp-5766,CeCuS2,0.0
mp-1057894,MnCo,0.3974403950000003
mp-505451,HS9N,0.0
mp-1017159,RbMg6C,0.35997814476562473
mp-7592,AgF,0.0
mp-776013,Na2NiPCO7,0.021235583802087454
mp-620812,Y2Ge5Ru3,0.0
mp-557084,Al2CuSi2O7F2,0.01941435428571392
mp-1084815,Nd(SiPt)2,0.0
mp-1039672,RbMg30BO32,0.12236114523437447
mp-771787,TiMn3O8,0.07505054000000297
mp-669320,Ba5Si3,0.00803507156249994
mvc-9946,CaHo(SnO3)2,0.1277066404687517
mp-1029918,Ba(VN2)2,0.015747118690480733
mp-560528,K2Ce(PO4)2,0.0
mp-1031684,Mg6VSnO8,0.26645256093749925
mp-771081,Li3Ni(BO2)5,0.061909352631583474
mp-17885,Ba2Ge2Te5,0.0
mp-574339,Y2Ni7,0.0
mp-767939,Li2V2F7,0.06826734083333362
mp-765512,Li2CuF5,0.061717723020848325
mp-1036402,CaMg14NiO16,0.03029365125000005
mp-1093845,TiBePt2,2.592834885857144
mp-566876,Mn(PO3)3,0.0
mp-767899,Li2SiNiO4,0.08050607749999905
mp-1078216,Sr2Ti2Bi2OF2,0.0
mp-722674,K4Tc2H6C8O21,0.12881454213414578
mp-556781,Y3CuGeS7,0.0
mp-754474,USiS,0.035713346111112536
mp-861528,V3CoO8,0.000725956249993942
mp-9757,BaSm2PtO5,0.0029664537962981186
mp-1096691,Sr2TlPb,1.62235452875
mp-765965,LiNi(PO3)4,0.09225354596066104
mp-765453,Li3VOF5,0.017867213523819814
mp-7648,SiO2,0.0073549533333334685
mp-542044,Zr11Sb18,0.012711669525864444
mp-560517,TiSCl6O,0.020605515833335808
mp-1096552,Li2ZnIn,1.2493291575
mp-23341,Bi2Pt2O7,0.0
mp-743950,CrSb2H12(C2O)4,0.33666944428240786
mvc-3032,Cr5(TeO6)3,0.12356936492788595
mp-866297,EuCdAu2,0.007706390312501198
mvc-15791,CaSbF5,0.08126636214285997
mp-567366,CsCuCl3,0.029337473666665836
mp-542787,FeH6(CO3)2,0.042808680444446516
mp-772228,CdP4O11,0.0
mp-26342,SbP2O7,0.035090153875012575
mvc-9087,LaTaZnFeO6,0.07131214774999782
mp-763905,Co6O5F7,0.07829380798611041
mp-1002224,ErP,0.5532576350000005
mp-774022,CrSn3(PO4)6,0.06598914996322057
mp-569032,PrAu6,0.0
mp-1066921,MnGaNi2,0.03534254000000025
mp-1097116,Ca2ZnPd,1.5300391274999998
mp-667198,TiBrO,1.2765357950000027
mp-981749,TcAg3,0.5937808824999999
mvc-11070,FeS2,0.35338204333333323
mp-9208,V2B3,0.0
mp-1097150,AlCuRh2,2.9351996125
mp-540255,LiNiPO4,0.029853583214289436
mp-24729,RbGa2P2H5O11,0.001104326190475291
mp-22777,NaN3,1.2372038575
mp-626182,SbHO3,0.02826668324999915
mp-706455,As4S11(N6Cl7)2,0.1680083696692689
mp-540443,LiCrPO4,0.043423751785717
mp-772446,Co3SnO8,0.06337322729166761
mp-1061876,DyCd2,0.008448093333333073
mp-568375,La2Rh7,0.0205827754629615
mvc-12841,CoO2,0.013915339166664431
mp-32895,SiO2,0.01550214249999904
mp-570520,ZrHg3(SeCl3)2,0.0
mp-15702,MgCN2,0.5305621049999996
mvc-3391,Mg2Nb2CoO8,0.01699884410256125
mp-31235,BaNaBi,0.0
mp-762165,Li3(NiO2)5,0.03520244152778052
mp-606671,Nd3InC,2.002684894
mp-1086665,NdCoAsO,0.2098045666666657
mp-1028124,CaMg14Ga,0.05388193393749985
mp-763106,Mn3O5F,0.0456198701388999
mp-1077735,LaSn2,0.023613981481483748
mp-773933,Ta2WO8,0.0
mp-1028139,CaMg14Ga,0.039222845187499855
mp-568971,Ag2Se,0.006923170833332826
mp-776166,AgPdO3,0.4580416435000032
mp-567550,In3Au7,0.0020988991666675005
mp-768065,VCrO3,0.007935531624998049
mp-21154,TbMnGe,0.09896371999999687
mp-775497,Na2NiPCO7,0.01588670463542119
mp-561396,Li3CrF6,0.0
mp-771457,NbFeO4,0.0883834016666647
mp-1097291,Y2GaHg,2.4455802612499995
mp-557040,Lu(PO3)3,0.0053380274679497575
mvc-9719,Mg(BiO2)2,0.17099552559523534
mp-998755,RbSrCl3,0.0
mp-777221,Li8FeO5F,0.02968896799999765
mp-1076628,Sr3Ca5Ti3Mn5O24,0.06864831679166628
mp-18754,DyCrO4,0.0
mp-1058588,PrSb,0.007475995000000067
mp-761654,TiCo(PO4)2,0.03447343249996493
mp-706836,Mn27Nb13O60,0.12108400544167708
mp-778703,Li4Mn3F10,0.09627588794117604
mp-3785,TlGaTe2,0.0
mp-504166,Ni(PO3)3,0.0666454259134559
mp-705599,Cr2P2O7,0.0
mp-686729,Na7AlSn11(PO4)18,0.004765778211008431
mp-763584,LiCoSiO4,0.06663355671427151
mp-555080,PH7CN3O3F,0.005425384236109386
mp-1099319,RbMg6Ni,0.2909614287499997
mp-30383,Hf2Au,0.0
mp-560230,CeAg6(NO3)9,0.0
mp-1095109,Ba2BiIrO6,0.01173429016668237
mp-769640,VCrO3,0.007492054624997022
mp-567584,Hf2Te,0.008911570833335603
mp-850477,CsCrH24(SO10)2,0.0
mp-772598,MnO2,0.012774714166667422
mp-10572,NaPN2,0.0
mvc-7913,Cu3(SbO3)4,0.02405554394737397
mp-1094682,MgGa2,0.033560724166668436
mp-761635,Li2CoP2O7,0.08137419850692051
mp-1038425,Mg30BiCO32,0.17955864375000186
mp-1022131,Mg6VCu,0.221544368125
mp-763134,V4(OF3)3,0.001353818749986857
mp-1098454,NaMg30SiO32,0.07393030311523496
mp-849667,Li4Co5O9F,0.13010269703947852
mp-686681,Ca6Ga6Si3(HO12)2,0.0874513070121985
mp-853204,Li2MnSiO4,0.029034094687499845
mp-776258,Mg4Cu11O15,0.07088787283333353
mp-2812,HoFe5,0.004517321666665629
mp-765039,LiMn7(O3F)3,0.08658624446876395
mp-19855,Cr7C3,0.0
mp-28651,Cs2IrCl6,0.0
mp-504594,ZrBr,0.0
mp-771982,Mn3Ni(PO4)4,0.025905386380207673
mp-4429,CaSiO3,2.720133333244945e-05
mp-550,Al12Mo,0.0
mp-867140,SmZn2Ag,0.0
mp-1873,ZnF2,0.0
mp-762896,LiFe4(PO4)3,0.12694233250001208
mp-540622,RhF5,0.0
mp-4433,Ce(SiIr)2,0.011738468000000779
mp-695725,LiCrPO4,0.04275606095238249
mp-1004758,Mn3(HO3)2,0.012673163465912296
mp-14652,Cs2P3,0.0
mp-1031413,KCeMg6O8,0.3009928616911788
mp-1073154,Mg2Si3,0.19275172361111004
mp-770191,Li2V2(SO4)3,0.03637376786224245
mp-972808,SiO2,0.015443412499996256
mp-1095768,Y2ZnCd,2.4241624475000005
mp-706622,PH6(NO)2,0.01526704798917855
mvc-6885,MgSi2NiO6,0.014057750499999244
mp-1026652,NaMg14Ga,0.040608484999999916
mp-570173,K2SnCl6,0.00659564722222461
mp-15073,BaSmC2O6F,0.0
mvc-11563,CaV2O4,0.0343323432142828
mp-762912,Ti3CoSn2(PO4)6,0.0256854427777764
mp-1018147,EuPd,0.0
mp-999269,RbSmTe2,0.0
mp-1098673,Mg30TiMnO32,0.0480729441646881
mp-778750,V6O7F5,0.030590097777791318
mp-643246,YbMgNiH4,0.0
mp-21494,UCoSn,0.037461620625000684
mp-9201,K4Ge2Au7,0.0
mp-864975,Mg2PdPt,0.0
mp-18391,Sm2Si2O7,0.021689083181819058
mp-23157,Bi,0.06690271500000032
mp-4336,LaPPd,0.0
mp-553988,Cs2LiF3,0.048404903333334026
mp-759066,LiAgF3,0.05905638299999881
mp-1016234,Mg3Bi,0.09313513250000004
mp-769509,Li4TiMn8O18,0.0680257858266069
mp-1098575,Mg30CrCdO32,0.035655890000000134
mp-998554,KAgCl3,0.0048387009999997215
mp-1080287,Ce2Sb2Se5,0.13714710250000106
mp-22189,In6TeO12,0.010693257543860746
mp-18787,Ba2Mn3(SbO)2,0.05607710499999996
mp-1017539,ZnO,0.30190390749999896
mp-651332,SeBr4,0.0
mp-1022473,Mg6ZrMo,0.19201779187499968
mvc-6945,BiO2,0.2224005116666694
mp-765110,LiVFe(P2O7)2,0.008172860476183708
mp-764553,Mn3OF8,0.07011162651620051
mp-777448,Li2VF4,0.03535236357142768
mp-570008,Sr3BiN,0.0
mp-1078626,TbSnPt2,0.0
mp-755240,AsAuO3,0.1187692556666642
mp-1073299,MgSi2,0.2460460325925946
mp-765761,Li3Co3OF7,0.037080799285714505
mp-754871,Na3BiAsCO7,0.09569458596154767
mp-1093939,Ba2SbBr,1.1738400419062502
mp-1050,Ni3S4,0.0
mp-1032822,Mg6MnZnO8,0.03152460718750038
mp-1097521,Ca2TlGa,1.75241293625
mp-773957,Na3MnSiBO7,0.020721278749997296
mp-763199,LiMnF4,0.03793327874998997
mp-22287,NbGeIr,0.0
mp-25145,VO2,0.04628864999999749
mp-1070917,Nd2Co2SiC,0.0
mp-850435,LiFe4(BO3)4,0.06457943154762091
mp-1021709,Mg6VSn,0.1579210462499998
mp-867966,Eu2SiO5,0.0
mp-764137,NaFeP2O7,0.0019027138636369398
mp-4663,Yb2CdPd2,0.0
mp-1029262,VZn2N3,0.0
mp-779231,Gd2W4O15,0.0980161591666473
mp-1018123,TiAu2,0.0
mp-975664,NdGe3,0.11874994906249993
mp-29599,Re3(SBr)7,0.0
mp-1095888,TlHgPb2,1.1034987475
mp-643123,K5Ag(NO)2,0.6583648240833342
mp-1094575,LiMg,0.05236979416666676
mp-865764,YbGdRh2,0.0
mp-1029145,Te4MoW3(SeS)2,0.08702922312500139
mp-773528,Na5LiFe2P2(CO7)2,0.012362721730767134
mp-28675,Ba2Nb15O32,0.0
mp-861511,PuP3,0.04597796345237981
mp-20816,Gd2AlGe2,0.0
mp-961696,MnCoSi,0.3940193754166677
mp-774020,LiVPO4,0.09246378216449802
mp-649452,BaV2(CuO4)2,0.042216096346153975
mp-767947,LiCo2(PO4)2,0.022854124711552792
mp-27254,Ba(TeO3)2,0.0004491570833344838
mp-27300,RbAuBr3,0.0
mvc-10096,CaFe2P2O9,0.00022340392857689287
mp-571247,Al3Mo,0.0
mp-580439,UFe5Si3,0.0
mp-762274,LiCu4(PO4)3,0.09467053275000836
mp-868255,V3Co5O16,0.10159236070312704
mp-84,Sn,0.03967690000000035
mp-3799,GdSF,0.0
mp-1020009,Li2Ca2Si2O7,0.010048795641025343
mp-780625,Tb5O9,0.0857742875892864
mp-29454,Na3TlO2,0.0
mp-566323,RbLiMoO4,0.0
mp-540945,Na2Li3GaO4,0.0
mp-755393,SrLaI5,0.04729315035714299
mp-765283,Li5TiV3O8,0.1001641761274472
mp-1095218,BaThTe4,0.009591169166666802
mp-27563,Rb2In4O7,0.0
mvc-10891,Mg(CoO2)2,0.09757954642857224
mp-865766,YbHgPd2,0.0
mp-1095866,Sr2InPb,1.6995865890625004
mp-17093,ErSiPd,0.0
mp-555779,ZnS,0.0003292615624999051
mp-1080559,In(GaAu)2,0.0
mp-559063,CsBC3NO2F9,0.4872687318820574
mp-570460,LaCo5,0.030618500760869694
mp-505372,Np(BH4)4,0.0
mp-781710,NbNO,0.0244625862500012
mp-570727,SbCNCl6,0.07576906601852508
mp-558645,PBr3O,0.0
mp-715276,Fe2O3,0.05631692899999941
mp-1020683,NaCa(PO3)3,0.0
mp-2532,PrTe,0.0
mp-721905,B5H4NO10,0.33888304953575066
mp-1026463,HfMg14B,0.2865034614062498
mvc-6045,MnZn2WO6,0.0656132030000034
mp-704317,K2Cu3(MoO4)4,0.027696719649989987
mp-770058,Li2CrFeO4,0.0596421877083424
mp-7573,Co(BW)2,0.0
mp-773374,Mn7V(PO4)12,0.05822170108455715
mp-684786,K2Ba6Yb3Bi5O24,0.012589873374991178