mpid,formula,e_hull
mvc-1301,CaCoP2O7,0.022734431818181026
mp-764400,Li8FeCo3O8,0.097429163874998
mp-1094724,Mg3Sb,0.06433770625000035
mp-774156,NbFeO4,0.035948498333331365
mp-772586,Li2Cr2O7,0.05725339291666742
mp-510328,NaCu5C6,0.5592252877083324
mvc-11632,VBiO5,0.2875701323214299
mp-761719,LiCoPO4,0.07260704375000149
mp-581403,K3Na4Si3BF22,0.002974369444442182
mp-36194,Ba2TiO4,0.1604272471428585
mp-1380,Zn3Ru,0.0
mp-762783,LiMn5P3O13,0.0578143881818125
mp-774099,V2Ni(PO4)3,0.02720709476853856
mp-1026460,Mg14TiCr,0.12423571244791674
mp-504861,Y4CoB13,0.1195965766666678
mp-558521,B2Se2O7,0.0
mp-570747,N2,8.881784197001252e-16
mp-649957,Cu3Mo2O9,0.03329911124998208
mp-17065,Ho2SiO5,0.0
mp-722342,NaCa2B9(H2O5)4,0.006009749104169515
mvc-6914,Mg(NiO2)2,0.10402552428571443
mp-756272,LaDyO3,0.040265871000000786
mp-780592,Fe3O5F,0.11370179430555627
mp-849439,Mn3O5F,0.05337473236112178
mp-1032533,Mg6ZnCrO8,0.0841551362500006
mp-1025520,BaIn2Pd,0.0
mp-6233,NaSr3RuO6,0.0
mp-557722,LaSO,0.00032824583333024293
mp-755061,SrCaI4,0.0598323233333331
mp-767352,Mn5O5F,0.05944499545454995
mp-29524,K3BiO3,0.0
mp-780061,Hf2N2O,0.012476762999995115
mp-13982,CdCu2GeS4,0.0
mp-22161,CaYb2O4,0.11132372053571428
mp-569240,Fe3Se4,0.17573863500000098
mp-1066522,HgPt3,0.05844543187500052
mp-1094524,MgSn,0.07523350791666683
mp-8306,Ba3FeN3,0.0
mp-972088,Zr3Zn,0.018370615000000257
mp-755084,Na6MgO4,0.019344454999998817
mp-1079648,U(GeRh)2,0.02522479249999865
mp-781108,Na4Mn2As(CO4)4,0.09175525731771116
mp-1031733,Mg6NbNiO8,0.3432106326875006
mp-616587,RbPO3,0.0
mp-617840,Ba3Ce2C5O15F2,0.10148046095678964
mp-510422,SiNi2P,0.02479889145833436
mp-1033390,Mg6CrCdO8,0.147204931250001
mp-7492,LaBO3,0.0071729640000040016
mp-627867,Si4H2O9,0.17312412049999892
mp-1031886,SrCaMg6O8,0.24466239250000044
mp-769440,Li7Mn8O20,0.020592509339282472
mp-735715,YbV4O8,0.0
mp-29725,YBRh3,0.0
mp-1095848,ZnFeCo2,2.6316776936538457
mp-559356,Tl3AsS3,0.0
mp-1019519,Ba2NaO,0.0
mp-756103,Y2HgO4,8.188464285563413e-05
mp-997158,CoAuO2,0.0
mp-755980,SrCaI4,0.0275820612500004
mp-540734,Na14Mn2O9,0.0
mp-1001600,HfB12,0.04335892717948564
mp-17105,Hf9V4S,0.016538827499999798
mvc-12733,MgTi2S5,0.21356393937499973
mp-1027115,MoW3(SeS3)2,0.028491293333335218
mp-35759,Li2NiF4,0.0
mp-1078315,PrBi2Au,0.0
mp-17220,Rb3TaS4,0.0
mp-685363,Cd18Sn19O56,0.12366549150537764
mp-557647,Na6CoS4,0.05721005348485075
mp-566831,Bi2Te2WO10,0.00016713741667473414
mp-693612,NaCa3SmP3O12F,0.0
mvc-7386,ZnMo2O7,0.06237708812499944
mp-15250,NaCd(PO3)3,0.0
mp-863761,K2BaCdSb2,0.0
mp-756106,TbCeO4,0.0648643508333322
mp-850948,LiMnCr2O6,0.07520766256667423
mp-17190,Sc5Ge3,0.0
mp-19458,BaV10O15,0.0
mp-10628,TaS,0.21088761558594094
mp-27840,Cr3Se4,0.0004595738095236612
mp-24674,Be3P2(H2O5)2,0.0
mp-782652,Li4Ti3Cr3(NiO8)2,0.06288273295040536
mp-625751,MoH4O5,0.07034043262499877
mp-760811,Li5Cu3F14,0.07662760015153047
mp-763631,LiVP3HO10,0.09240030566405276
mp-1094539,Mg5Sn,0.05428524250000022
mvc-14436,Al(MoS2)12,0.1814823909099097
mp-567927,ZrAlPt,0.0
mp-1026539,Mg14NbCr,0.1421543912500005
mp-23241,YBi,0.0
mp-975588,PuPtO3,0.8536491245000004
mp-763412,Li4Co13O28,0.0496778694444453
mp-1032037,BaMg6ZnO8,0.3838287760416677
mp-851041,Na2Fe(Si2O5)3,0.06741294315103462
mp-29809,Ca2GeN2,0.0
mp-10654,Te,0.0439722149999997
mp-976422,Hf3C,1.3271650325
mp-819185,LiFeAs2O7,0.0009159127272715396
mp-780722,Y6N2O5,0.08738876628204828
mp-11500,MnNi,0.038562918333332696
mp-985547,Ac3Sm,0.04336851125000063
mp-28254,LiRuO2,0.10161587000000337
mp-561380,Ag2Te4O11,0.014377259411766374
mp-1096079,Li2TlRh,1.7379023825
mp-29263,UBr5,0.0
mp-766995,LiLa3Ti2O9,0.030377531916663262
mp-1073903,Mg6Si5,0.17579246742424282
mp-640383,Ho5NiSb2,0.0
mp-8667,CeB2C,0.0
mp-867917,CuGeRh2,0.0
mp-771341,Li3BePCO7,0.05153310096153962
mp-20217,EuPS3,0.0
mp-975913,PrNbO3,0.3428934221999977
mp-1080077,UGaPt,0.0
mp-35986,Ba4Nd3F17,0.0
mp-22539,CeNiSb2,0.0
mp-684694,Yb2Se3,0.1659737847812499
mp-772596,Li2FeNi3O8,0.04828892781250094
mp-10408,K2CN2,0.0
mp-562135,KVPbO4,0.0
mvc-4143,Ca3Ti2(Si2O7)2,0.05332636326087048
mp-569752,UPt,0.0
mp-1097154,Y2HgAu,2.352472075
mp-30409,Mn2Au,0.2347202766666676
mp-1021373,LaMg6Ti,0.21514414621212108
mp-769785,ScVO3,0.050347357999990905
mp-862613,LiAc2Ga,0.0
mp-5505,U2TeN2,0.0
mp-27313,NbSeF9,0.0
mp-10547,RbAuO,0.0
mp-25648,WO2,0.27687711166667484
mp-16721,TmAl,0.0
mp-559400,BeF2,0.0024047316666662155
mp-773176,Li2CrAsCO7,0.024211752291663842
mp-16304,YPPt,0.0
mvc-15605,AlWO3,1.1617058907499986
mp-638086,K3Th2Cu3S7,0.006978122499999628
mp-23319,RbVCl3,0.0
mp-1069270,ZnNi3N,0.0
mp-974982,Rb3In,0.1573068119318184
mp-557920,Zn3(PO4)2,0.0
mp-756751,Tm2Nb2O7,0.09555091665403204
mp-999206,ScAl,0.11434358749999962
mvc-5533,ZnBiAsO5,0.10332572531249973
mp-23197,TlI,0.05175345500000006
mp-23095,Ca3Cu2(ClO2)2,0.0005231672727230574
mp-1038310,Mg30AlCuO32,0.029960768320313136
mp-767842,Li12V3CoP4(CO7)4,0.06572150382362453
mp-24696,MgSb2(H4O3)6,0.02810921559259328
mp-560350,K2CuF4,0.00017142964285010715
mp-625661,H9BrO4,0.0
mp-744691,K3Mn3H2C12O13,0.6045481981502521
mp-4734,NaPO3,0.0075211701666662014
mp-868639,MnPO4F,0.03586137478174045
mp-3477,MgAgAs,0.13546441016666755
mp-782715,Li2CoOF3,0.09462506767857183
mp-1097198,Y2NiRh,2.576036509375
mp-707440,Sr2Mg3H10,0.0027950663333333736
mp-677335,GaPO4,0.0
mvc-5120,ReWO6,0.03208044249999986
mp-765021,Li2V3(P2O7)2,0.054574182334111036
mp-864831,NbZnRh2,0.0
mp-112,Y,0.0
mp-4541,NaCuO2,0.00711634499999647
mp-510519,Rb2V3O8,0.0
mp-1080659,OsC,0.7718940100000005
mp-758797,LiCu(PO3)3,0.049606040714274435
mp-707519,Mg16Si8HO32,0.0583065814277175
mp-764765,Li4Nb3Ni3(SbO8)2,0.13354768669643668
mp-765607,Na5Mn7O16,0.0927772064285648
mp-1026453,Mg14GaW,0.14520756593750006
mp-6648,KLiB4O7,0.0
mp-982613,Pm2InHg,0.0
mp-1004037,CaMnO2,0.1568054343749994
mvc-4962,ZnSnO2,0.15036994312498386
mp-850866,CeHfO4,0.08970270249999858
mp-1096958,DyMn2O4,0.1238202049999746
mp-555293,NbS2,0.0045544616667214655
mvc-15960,Mn3Zn2O8,0.0
mp-1028123,LiMg14Mn,0.14590186375000025
mp-554427,NaCoO2,0.0
mp-772389,Ba9Rh8O27,0.0
mvc-4831,Zn3Cr2(Si2O7)2,0.12188652471015438
mp-973069,HoLuTl2,0.0
mp-867881,ScTlRh2,0.0
mp-510613,MnNiAs,3.805884832222224
mp-1492,CdTe,0.10748533166666664
mvc-16045,Sr4CaCr2(SO3)2,0.08891254283333437
mvc-13111,FeO2,0.2412408839583389
mp-571296,Er(GeRu)2,0.0
mp-7844,Mg3As2,0.16514782449999998
mp-31354,Pr3OsO7,0.0
mvc-8123,Ti2ZnO5,0.0717610353125
mp-1033747,Mg14BiBO16,0.2570612160026036
mp-764959,VF5,0.00977630583333422
mp-764730,Li3VO3F,0.05130922968749997
mp-775029,VSb3(PO4)4,0.09056463187500263
mp-15221,Rb2NbCuS4,0.0
mp-776259,Hf2N2O,0.005981623249995849
mp-8703,Na3SbSe4,0.0
mp-555508,Ca11Si4SO18,0.025052622352941256
mp-781495,Na2Co2O3,0.019601745952380508
mp-686701,Nd3O2F5,0.2223050836666678
mp-768084,Li8V11O22,0.04912576564022242
mp-767694,Li12MnFe3P4(CO7)4,0.04031138788461863
mp-579927,Na2YbMoPO8,0.012146625961534596
mvc-2640,Ba2Ca2Ti3Tl2O10,0.3396430317105281
mp-7090,NaMgSb,0.0
mp-16789,Yb2S3,0.19648478966666616
mvc-4467,Ca3Ge3(MoO6)2,0.0
mp-1075009,Mg3Si4,0.20804397333333305
mp-684965,ZrSe,0.1953335859027776
mp-978496,SiB4,0.2820839538333333
mp-15053,Y(PdO2)2,0.0
mp-542601,Yb3Se4,0.2217788009151782
mp-695952,Cr3(PO4)4,0.08936212834238688
mp-627123,Si2H2O3,0.6084851494642853
mp-763356,Fe4O7F,0.11154304171875397
mp-675142,Yb3DySb3,0.0
mp-774251,LiFePO4,0.04717006428571402
mp-540735,Cs2UBr6,0.0
mvc-5096,WO3,0.005197833124999107
mp-1014995,CrN2,0.3338860561511101
mp-30032,TlIO4,0.09556686791666637
mp-677703,Nd4Si4N7ClO3,0.0
mp-25649,NaIn(WO4)2,0.0
mp-1016551,BaMg6W,0.5513488761160712
mp-19403,Ba2CaMoO6,0.0
mp-580215,CeGa6Pd,0.0
mp-849666,Ta2CrNO5,0.07368085277778036
mp-1100609,Li9Mn2Co5O16,0.10320609281246362
mp-553990,Ba4B2N4O,0.01101921954545215
mp-976982,Li2Mg,0.00905123333333413
mp-775353,Li5Mn(SiO3)4,0.09119446026744617
mp-862293,La2AgIr,0.0
mp-21134,K(InAu2)2,0.0
mp-1079423,HoSnIr,0.0
mp-773355,Li3V(FeO3)2,0.06608114041665036
mp-33239,Pu2S3,0.02530209775000003
mp-755717,SmHoO3,0.06690749462499745
mp-758741,Li(FeP)2,0.023439864499996688
mp-9841,Er2(SO4)3,0.0
mp-776365,Li9Mn21O40,0.006295633196425676
mp-1079096,Cs2NaLaBr6,0.0
mp-1027782,Mg14FeB,0.2933546592187501
mp-28079,Na2Mn2S3,0.023766149166667642
mvc-15578,Ca(FeN)2,0.468148109666668
mp-554361,TcXeO4F5,0.24017099659091026
mp-1029076,Te2Mo(WS2)3,0.0997347200000016
mp-1038594,Mg30NbCrO32,0.06565174833705179
mp-763542,Li3Ni2(CO3)4,0.06110489002976216
mp-24164,CuH2(SeO3)2,0.003758002499998802
mp-773753,V2(OF)3,0.02100386791666775
mp-19788,Tb2Ge2Ru,0.0
mp-770257,Li4Cr3FeO8,0.09194243187500196
mvc-4602,AlCr2O4,0.4915464382142893
mp-1175,SrS3,0.0
mp-1093976,TiVFe2,3.4272420959375003
mp-1078594,Pt(I3N)2,1.2065074519444452
mvc-14224,MgWF5,0.10926602214285808
mp-1096684,Li2CdAg,1.0061874037499998
mp-667318,K3Ce2(NO3)9,0.01966925941986819
mp-12623,BaPdF4,0.0
mp-28495,ZrBr2,0.033222108333331946
mp-1038023,RbMg30MnO32,0.0718388112760433
mp-8927,TaCuN2,0.12737869896833232
mp-568968,K2SnHgSe4,0.0
mp-1018673,CoPPd,0.0
mp-773749,Co3OF5,0.05771804652777756
mp-867281,Tc3Pt,0.0
mp-3972,Ce2SO2,0.0
mp-1094974,MgZr,0.07776001000000042
mp-764170,Na6CoO4,0.05242876590908985
mp-864608,NpGaRh2,0.17344259770833226
mp-743566,MnFe2Sb2(PO4)6,0.0
mp-768658,La(HO)3,0.08501132785714383
mp-19212,Rb2MoO4,0.0
mp-621994,NdOsO4,0.0
mp-12192,La2Ti2O7,0.0
mp-3699,CoAsS,0.19858132833333286
mp-706544,NaGa(H2N)4,0.006199639107142829
mp-9406,Li2La2Ti3O10,0.019989448529436515
mp-1094658,Mg2Ga,0.038328749722218884
mp-776018,SrTiO3,0.03933936899999857
mp-1095829,NaMg2Tl,1.10124047375
mp-1078566,Ce2Mn2Se2O3,0.008390941545929564
mp-1093963,Na2HgSb,0.9011412669531252
mp-2735,PaO,0.24784178749999874
mp-567798,Hg4AsI5,0.010107971562500095
mp-28474,S7(N3O4)2,0.2339580101771421
mp-541951,Zr3P3Pd4,0.0
mp-10596,FeIr3,0.0
mp-754044,Ho2TiO5,0.094760476874999
mp-974332,S3Br,0.3161970548437498
mp-16533,BaNd2FeS5,0.053631965555555716
mp-757372,Sr5U5O19,0.0
mp-505286,Rb2NaFe(CN)6,0.12255591578125193
mp-1098853,Mg30CrCuO32,0.02653901750000021
mp-559755,Sm2(SeO3)3,0.0
mp-553880,ZnS,0.0005818101923069643
mp-977369,HoMgHg2,0.0
mp-776664,LiV3OF11,0.04515006261719634
mp-547237,Co(PO3)2,0.0
mp-770078,LiMnPCO7,0.0297095533143974
mp-764240,Na2V6O13,0.04087375035714658
mp-1079749,Tm(BC)2,0.1553942219999982
mp-1037669,CsYMg30O32,0.14944429132809933
mp-862677,LiHoTl2,0.0
mp-649130,AlSeCl7,0.13100371749999962
mp-978508,Si3Os,0.5995355118750005
mp-30455,HoBiPt,0.0
mp-634446,CsAl(H2N)4,0.0
mp-30981,Te(HO)6,0.0
mp-778590,Co3OF5,0.05322428708333238
mp-25248,Li4(CuO2)3,0.0331151676923076
mp-849232,LiFeF3,0.028257902999995643
mp-560014,Pr3CuSnS7,0.0
mp-705277,Li2Co(PO3)4,0.01827322780702368
mp-1077210,LuGa2,0.0
mp-776167,CeAlO3,0.00030160849999916195
mp-978968,Ti3O2,0.03239489599999601
mp-1016926,ZnIrO3,0.7617187339999996
mp-23392,K4CdCl6,0.0
mp-215,YSb,0.0
mp-531272,GaAsO4,0.06302879277777773
mp-1031817,Mg6MnVO8,0.0476974434880022
mp-770140,Li4Fe5Sb3O16,0.043475326916679435
mp-580797,Ca(BH)2,0.7107094445500017
mp-771986,Li4Fe3O8,0.08801075725000196
mp-989528,Rb2AlInH6,0.0
mp-753954,CdCuH8(ClO)4,0.027964610555555325
mp-696,SiPt,0.0018585762500000767
mp-991438,TiCu,0.08355197472222288
mp-867998,In15SnO24,0.0
mp-1028071,Mg14MnBi,0.07185300999999987
mp-1026734,Mg14SnC,0.2075649801562496
mp-25794,V2CdP2O9,0.0
mp-29549,Si(PH2)4,0.0
mp-979751,TaTiFe2,0.0031517165624990184
mp-744184,TbFeGe2O7,0.0
mp-30551,GaFeCo2,0.0
mp-4536,ScNi2Sn,0.0
mp-1029610,Ca3CoN3,0.002243091741068959
mp-1508,LaS2,0.0
mp-763323,LiMn2(BO3)2,0.06923959931817691
mp-685555,HgAsS2,0.10463603701388856
mp-1095338,BaUTe4,0.0046381466666671756
mp-675266,Ca3(HO3)2,0.10509341613636193
mp-569066,Cs2PdI6,0.005466334166666531
mp-743820,Cu3Mo2(HO5)2,0.032545003823526215
mp-556153,Sr2P2O7,0.0002532113636437572
mp-8714,Rb2MnS2,0.0
mp-6745,LiGa(SiO3)2,0.041344598833334516
mp-864924,NdMgHg2,0.0
mp-1062437,DyHg2,0.016494050833333333
mp-25729,H8W3Se(NO6)2,0.04157330977084772
mp-1096984,H2CO,0.3379375425000024
mp-568002,HfI3,0.0
mp-561822,Ag2PS3,0.011080485117186178
mp-562230,Rb3(Cu4S3)2,0.0
mp-7066,ScNiGe,0.0
mp-510041,Hf2Ni2Sn,0.01275188500000013
mp-554819,MgP4(Cl5O3)2,0.0
mp-1097168,Al2PdPt,2.2424888217788457
mp-972408,UBiTe,0.0
mp-5033,Tl2SiF6,0.0
mp-1073410,MgSi2,0.18027440925926186
mvc-4273,Ca3Si4(AgO7)2,0.062177118913043124
mp-1027976,Mg14ZnSi,0.06185459917499993
mp-761954,Li6Mn3Cu(PO4)6,0.0669289478750219
mp-3489,Nd(FeSi)2,0.0
mp-549,ScSb,0.0
mp-505270,TiSO5,0.009836102767855516
mp-510148,UCu5,0.11380137666666545
mp-555556,SiO2,0.009226476041666487
mp-772602,NaLi5Fe2P2(CO7)2,0.032537318653846015
mp-6485,La3SiAgSe7,0.0
mp-763961,Li5TiV3O8,0.08756810156862382
mp-540073,LiFe(PO3)4,0.03735484680554979
mp-982018,Ho3Sb,0.14100725833333438
mp-3605,Th(CoGe)2,0.0
mp-1072996,Mg2Si3,0.23290463511110995
mp-769895,TaFeO4,0.030894634583333414
mp-6565,Li3Sc2(PO4)3,0.0
mp-862903,PmGaAg2,0.018661768333332333
mvc-5214,Ca(SnO2)2,0.10171262732143392
mp-763950,V3O5F,0.04609637999999272
mp-29655,B2H4C,0.15397984577380974
mp-19348,Al4Co(BO5)2,0.028614981981426982
mp-1012551,BaBrCl,0.0
mp-762298,Li2CrSiO4,0.06495575843750334
mp-629397,FeNiN,0.10447036000001386
mp-767526,Na3CuPCO7,0.011125100288459144
mp-769771,Li2CoGeO4,0.0038888912499785992
mp-4854,NdScGe,0.0
mp-558231,Ba3Ho2Cu2PtO10,0.009163021157410078
mp-27252,TlCdI3,0.016766175377777248
mp-743619,CoH6C2S2N2O3,0.1795133508919271
mp-567413,TbInPt,0.0
mp-773464,Mn5V(PO4)6,0.0372978185416688
mp-697819,Fe2P3O13,0.5214200577661989
mp-1096012,Ca2CdHg,1.4136161450000002
mp-679949,La15B14C19,0.0192266836076378
mp-674981,Ag3SI,0.06481057700000026
mp-1028468,TeW2SeS2,0.06382009729166782
mp-1032311,CsMg6CoO8,0.4992774328645844
mp-555178,Rb5H5(OF3)2,0.0016322076388890494
mp-5625,Ag2SO4,0.0
mp-866108,HfZn3,0.0
mp-639445,CeBi,0.14928847499999964
mp-1100765,Pm2GaAg,0.0
mp-756889,KRbO,0.0914665099999996
mp-9523,Rb(ThSe3)2,0.0
mp-690125,V5Fe3O16,0.04915405125000305
mp-973536,LuUO3,0.7216025888749993
mp-31750,CrPO4,0.03280328541666755
mp-861126,Li4Ni(PO3)6,0.059941619396551175
mp-1030403,Te2Mo3W(Se2S)2,0.05789567333333422
mp-555138,CoSeO4,0.0050157958333336685
mp-14889,K9Fe2S7,0.0
mp-977554,MgScAg2,0.0
mp-1094880,SrMg,0.04209848937500005
mp-29234,InTeI,0.0
mp-23360,Zn(IO3)2,0.0
mp-973330,SbPH4(O2F3)2,0.002091606562504289
mp-9251,TlTe3Pt2,0.0
mp-639741,SiO2,0.012937511944443258
mp-541678,Cs3GaAs2,0.0
mp-16544,Mg4As6Ir7,0.0
mp-552588,LiNbO3,0.03347117199999872
mp-1071732,EuCu2,0.0
mp-974603,HgF2,0.008902520000000358
mvc-16037,Ca(TiS2)4,0.006250577692307857
mp-24893,Cr4Co3(PO4)6,0.009125152432405416
mp-764750,Li3Fe8(BO3)8,0.06552304620637805
mvc-10638,CaMo4O9,0.33947711660713864
mp-686722,Na3TlH24(ClO2)6,0.21187085067391287
mp-1208,ErAl2,0.0
mp-31931,LiMn4(PO4)3,0.03945827574999683
mp-20001,SrSnPt,0.0
mp-24197,Rb2CuH12(SO7)2,0.00039718572580138567
mvc-9196,MgTiV(PO4)3,0.02906798652777809
mvc-636,Sb(WO4)2,0.2115545999999906
mp-867134,SmCl2,0.03151185361111164
mp-32004,LiMn2(PO4)3,0.022298887291666958
mp-975140,RbZn4P3,0.0
mp-771049,Li2CoBO4,0.08888386374999957
mp-1080652,Se(NCl3)2,1.1638669078264208
mp-768636,LiBi2BO5,0.09312404240740868
mp-505173,NaZrCuTe3,0.0
mp-1008910,LuCd2,0.4006807266666663
mp-20767,Fe(SbS2)2,0.14442848119047635
mp-861491,LiMnPO4,0.07865271142857201
mp-559027,SrH12C4S4(NO4)2,0.2392249302027621
mp-754689,Gd(AlGe)2,0.0
mp-979011,TmZr,0.06437393999999941
mp-13675,CdPd3O4,0.006233090624999882
mvc-3143,Ba2Tl2Ni3O10,0.38787211514706943
mvc-529,BaTl(MoO3)2,0.4881009595000041
mp-773297,Li3Ti3CrO8,0.08024210495774398
mp-31091,Lu2Pd2Pb,0.0
mp-1025443,ThCd3,0.0
mp-865910,CdAg3,0.0
mp-773039,Li2Ti6Zn3O16,0.0014138438888897653
mp-29374,KGaSb4,0.0
mp-630880,LiNd2Tl(MoO4)4,0.007323310370361823
mp-761819,Li4VFe(TeO6)2,0.05635082949999681
mp-559550,SiO2,0.008082781111109938
mp-755298,Li4NbO4,0.08262336666666402
mp-618350,UCrO4,0.00175333041664949
mp-1095735,Ta2MoPt,4.284688880625001
mp-567157,Ba7Na5Li3N3,0.039298174857143035
mp-972641,SmHoIr2,0.0
mp-555575,Rb2AgC3(SN)3,0.051965992613092205
mp-568299,K2PtC4(BrN2)2,0.2287346361907696
mp-989468,B2(CN2)3,0.4388950691345457
mp-8260,NaGdS2,0.0
mp-1028873,TeMoWSe2S,0.05807833583333366
mp-1024984,TbInPt4,0.01917983541667123
mp-1025314,Mn(AlS2)2,0.10276056309523708
mp-555488,Na5AlP2(O4F)2,0.0
mp-1027983,Mg14VFe,0.2029922952343748
mp-6563,TbAl9(Fe2Si3)2,0.0
mp-769554,LiMgCr3(SO4)6,0.0086422094285723
mp-1096051,LiCd2Cu,1.00791600375
mp-860892,Y(Bi5O8)3,0.05072592203125037
mp-978918,TbZr,0.11847917833333275
mp-1028106,CaMg14Nb,0.12198706468750008
mp-23324,BiSBr,0.0
mp-863648,CaHg3,0.0
mp-22760,La(MnGe)2,0.0
mp-772156,ErAsO4,0.0
mp-758828,LiCuPO4,0.09359333857144224
mp-13486,LaCoCu12,0.0
mvc-11251,Ti2ZnS4,0.03015136671428653
mp-21608,Tm2(Ni7B2)3,0.0
mp-775374,Li3MnV(PO4)3,0.05931691181246545
mp-864884,DyCdHg2,0.0
mp-23729,NaBeH3,0.12587382066666694
mp-767641,LiV2F7,0.0899504649999896
mp-9763,K2NbCuS4,0.0
mp-697751,Li2Mn(PO3)4,0.029107589517542998
mvc-3006,SrV(PO4)2,0.07818226659720295
mvc-13374,VS2,0.08830045833333244
mp-8405,Li3LaSb2,0.0
mp-1068283,Tm2InNi2,0.0
mp-1029834,HfMgN2,0.0
mp-851070,Li3V3P8O29,0.05096101398256181
mp-12665,Be12Ag,0.11208376230769268
mp-653182,K4US3O14,0.0
mp-8636,Nb,0.3422668800000004
mp-695365,LiAl3Si9(N7O)2,0.04617952368533906
mp-6989,BaSeO3,0.0
mvc-9578,Mg(CuO2)2,0.06253349892856974
mp-540469,Li2Co3(P2O7)2,0.049774904891336284
mp-3222,La3RuO7,0.0
mp-21894,LiSn4Ir,0.0
mp-760502,LiH2ClO,0.0040672139999990975
mp-1076337,Ba2Sr6Ti7MnO24,0.04218662995835665
mp-697754,Li2V(PO3)4,0.030428652116539112
mp-615366,FeS2,0.4004035041666665
mp-34042,KY3F10,0.16873578928571398
mp-1026797,LiMg14W,0.16842646562499966
mp-23352,Ge(Bi3O5)4,0.0006588994444429731
mp-562466,SrCoO3,0.08095867023387182
mp-669308,Cs3Tm2I9,0.0
mp-5433,Pr3RuO7,0.0
mp-7791,Li2GeF6,0.0
mp-767435,P3(WO6)2,0.003886971470592471
mp-861628,Er2TlCd,0.0
mp-1030605,Te2Mo3WSe6,0.022430025833333644
mp-715574,MoO3,0.05977888906250151
mp-8120,NdCuSi,0.0
mp-29339,Lu(NbCl3)6,0.0
mp-780643,Li3MnCu3O8,0.08025510433333237
mp-973455,LiMg2,0.00893027833333182
mp-767192,Sn(PO3)2,0.021784188750007868
mp-767297,MnH8C2S2(NO2)2,0.10325550488368407
mp-510075,Cs7Au5O2,0.0
mp-561436,Ba2YReO6,0.0
mp-861261,Cr3(CoO6)2,0.004259006911764729
mp-765201,Li4MnOF5,0.07311720102272723
mp-773331,Li3MnO3,0.012260462500010227
mp-11359,Ga2Cu,0.0
mp-770952,Li4Co3Ni(PO4)4,0.02327640879464532
mp-556303,CuBi2(SeO3)4,0.0
mp-974581,ReBiO3,0.5218732474999985
mp-977372,Pm2SnHg,0.0
mp-1036988,Mg30CrCoO32,0.02453670082031234
mp-707419,NaB(HO)4,0.006097698750000546
mp-1028335,Mg14VC,0.38972540151909785
mp-21376,Nd2CuO4,0.10156878857144136
mp-1067282,Ti3Ag,0.14307307583333362
mp-672208,Ce2Si2O7,0.0
mp-697813,LiCr2(PO4)3,0.10964400854166456
mp-761328,LiVPO4,0.08765534180735468
mp-762414,Li3(FeO3)2,0.07436735943181816
mp-1097787,Ca2Co2O5,0.1729655152777827
mp-557137,KCoO2,0.04050677375000955
mp-781613,Li4Fe3Co5O16,0.07487229675223528
mp-20819,ErGePd2,0.0
mp-15949,Li(NiGe)6,0.0
mp-568722,CdBr2,0.0016296483333331224
mp-775675,V3Fe2Sb(PO4)6,0.04261189277778499
mp-559432,CF2,0.24618910930555604
mp-565771,CuMoO4,0.03746929520831177
mp-1097309,Ba2InHg,1.43306133875
mp-691115,Li4Mn5O12,0.0
mp-600029,SiO2,0.0113845684722218
mp-452,CoAs3,0.0
mp-761957,Li2Mn3CoO8,0.0036360281186178507
mp-12433,NaSnN,0.060643920138889314
mp-565302,ErMoO4F,0.0
mp-22420,CuTeO4,0.0
mp-850944,Li21(Co4O9)2,0.08842661553191355
mp-1009767,AgN,1.5329490188100006
mp-997515,Li(Fe2O3)4,0.07904693500000626
mp-27167,Sn2IF3,0.0
mp-531782,MgAl6O10,0.055235997647059776
mp-864630,LiMg2Hg,0.0
mp-1028368,NaMg14Ni,0.09191235906249996
mp-1076626,Sr2Ca6FeCo7O24,0.09939118924999768
mp-540856,Tm8Ga3Co,0.0
mp-1037247,YMg30BiO32,0.1504853599934899
mvc-5356,CaTiP2O7,0.18545751303290006
mp-763833,NaLiMnPCO7,0.0012551959444380145
mp-8769,Rb2CoSe2,0.037327268925924965
mp-676365,Li2TiO3,0.03380339333333193
mp-1034404,Mg14VCdO16,0.06069683882812527
mp-653901,K14Fe4O13,0.0
mp-26952,Sb(PO3)4,0.034513656397044734
mp-1034688,HfMg14NiO16,0.20175024039062528
mp-1096919,CrN2,0.3198331600399982
mvc-10009,LaCrMoO6,0.11439025250000867
mp-694985,Na2Sc4Zn2(MoO4)9,0.0017541416509416765
mp-557955,Ca3Al4ZnO10,0.004112768383837562
mp-1008661,AuC,2.24468682625