mpid,formula,e_hull
mp-1094262,SrMg5,0.12733729124999993
mp-1031603,Mg6NbVO8,0.20719675468749976
mp-773776,Li2VFe3O8,0.060331077023807474
mvc-1075,Ba2YCo3O8,0.06609674321428205
mp-774250,MnAlO3,0.05509274031250655
mp-29239,LuB2Ru,0.0
mp-762546,Li4Ti2V3O10,0.03783177289473905
mp-767253,LiFeSiO4,0.02510100428570716
mp-643101,Rb2H6Pt,0.0
mvc-4429,CaBi2O5,0.1923423095312504
mvc-11923,Mg3Bi2(PO6)2,0.161559865789469
mp-658087,Cs2CuH12(SO7)2,0.012968678145162116
mp-643248,Na2AlH4ClO4,0.010912289374999771
mp-7151,CsUCuSe3,0.0
mp-1019777,K2La2B2O7,0.0
mp-559929,Ba3Ta6Si4O23,0.17875202163290993
mvc-832,Sr2Cu2MoO7,0.3687571187500103
mp-769075,Li2CuH14C4(N3O4)2,0.09542974678800142
mp-764296,V2OF5,0.05393443812499932
mp-559901,KNa3Al4(SiO4)4,0.0022219414285720163
mvc-10923,Ca(FeO2)2,0.5089975239285724
mp-770862,Li2Cr2O7,0.03290031814394023
mp-779971,Li2MnFe(BO3)2,0.004469119722218196
mp-1096901,CrN2,0.36218138503999775
mp-776795,BaYBr5,0.0615434466071445
mp-559616,PH3CS3,0.020515424296874585
mp-566088,Eu3BWO9,0.0
mp-722316,KPH5C2SN3O4,0.04284793674635168
mp-570961,CdBiSe2I,0.0425574796666659
mp-1019802,KAl(PO3)4,0.0011999375000009134
mp-616492,DyGe2Pt,0.0
mp-1034025,Mg14TiCdO16,0.15205222664062568
mp-764081,Mn6O7F5,0.07318128354168253
mp-555356,Ba13Dy8Zn4Pt4O37,0.0
mp-1030393,TeMoSe,0.028834945833333236
mp-651075,Nb2Ni4O9,0.0
mp-697332,La7Ti27Al5(CuO4)24,0.06927545735848817
mp-19989,Ce2In8Co,0.0
mp-29299,TeSeO4,0.0
mp-615064,Li2MoF6,0.0
mp-556023,Nd3S2Cl5,0.0
mvc-12303,Y2(NiO3)3,0.18624266324404806
mp-1097608,Ti2MnTc,3.682214052916666
mp-1077745,Fe2Ni,0.22502837333333314
mp-1026826,KMg14Ga,0.1150964915624999
mp-7062,Mg3Al9FeSi5,0.0
mp-776102,Na5Bi2P(CO4)4,0.07603206848214318
mp-777204,Li4Ti3V2Ni3O16,0.06867359895833136
mp-36002,K9Ta10O30,0.009806745051021082
mp-13815,Rb2NaErF6,0.0
mvc-4183,TaTiZn2O6,0.1637722052500017
mp-12689,Er2InPd2,0.0
mp-674341,Sc3TaO7,0.18356285670455288
mp-1037796,CaMg30TiO32,0.0440735345312504
mp-762378,Li2V3CoO8,0.002271789047620487
mp-771795,KLi4FeO5,0.04499177204545468
mp-762922,Li2VO2F,0.09141426708333
mp-23645,KBiS(ClO2)2,0.0
mp-27466,LiTe3,0.011026117916666413
mp-1031270,KRbMg6O7,0.4801471310833323
mp-1027824,Mg14VCu,0.11713924093750006
mp-17853,YGaO3,0.027159736333329576
mp-850264,Li5Mn6(BO3)6,0.03462713811902951
mp-861610,Tc3Pd,0.0
mp-865097,NaHgPd2,0.0
mp-865569,Ti2MnIr,0.0
mp-38162,Sm5CuSe8,0.07576369874999944
mp-1093602,Ba2ZnPb,1.3252963855000008
mp-8154,La2Ti2O7,0.00972114181818462
mvc-13425,Mg2V3O8,0.09380713692308973
mp-3393,Sr3Al2O6,0.0
mvc-6325,Zn(SbO2)2,0.2237870689285728
mp-755300,TiO,0.11322975499999904
mp-17103,Sr3Ta6(Si2O13)2,0.0050658033974322345
mp-978960,Sm3Tm,0.019510748124999644
mp-1098751,CaMg30MnO32,0.01732131140625004
mp-867899,Sm2IrRh,0.0
mp-12065,Ag3Pt,0.013757132500000324
mp-1080547,CeMgAg,0.03452612777777818
mp-773596,Na7(CuO3)2,0.042300158249998
mp-555949,KEuPdO3,0.8438282941666673
mp-2517,Ca2Si,0.0
mp-1096135,CaYPb2,1.9115008548437509
mp-761922,LiNb(TeO4)3,0.0124869983823519
mp-558494,NdCrS2O,0.04706896400000282
mp-25619,LiVPO4F,0.0
mp-776622,LiV2F7,0.014805968499990385
mp-570584,TaSi2H35(C3N)4,0.14886747200672534
mp-1080638,CeSe2,0.5429636762500012
mp-769284,Dy2SeO2,0.0
mp-15074,Sr(PIr)2,0.0
mp-542465,Pr5Si4,0.0005174224999997534
mp-763589,LiCoSiO4,0.06615874742855787
mp-640859,DyMn4(CuO4)3,0.03784268043750138
mvc-13034,Ca3Bi2(AsO6)2,0.08798779533835699
mp-600480,Y12Ni6Pb,0.0
mp-767334,Li2TiCr2O6,0.08128265863635775
mp-1028241,Mg14AlMo,0.13252756229166662
mvc-10630,BaCaCoF7,0.020630114000006472
mp-17784,CaTiGeO5,0.0
mp-21263,PuSb,0.048432030000000736
mp-1373,Nb3Ge,0.0559723195833346
mp-757418,KTi16O32,0.03397368732143668
mp-1093539,Ca2AlZn,1.6968148821874989
mp-697170,MgH6(BrN)2,0.0
mp-565444,BaTb2Mn2O7,0.010558058468729923
mp-1026981,Te3MoWS,0.10464224312499848
mp-12931,SmTaO4,0.0
mp-777252,LiFeF4,0.06892730601852738
mp-759526,Bi2O3,0.03306053811538323
mp-1075371,Mg3Si4,0.2397852126190472
mp-1064843,EuTl3,0.0
mp-29363,Rb3GaP2,0.0
mp-568920,CaAu5,0.0
mp-1097276,LaAg2Au,1.96045226375
mp-981252,YMg5,0.03775769666666662
mp-767600,Li2MnF5,0.08481829843749987
mp-853215,W(SO4)2,0.0
mp-642159,K3MoF6,0.0
mp-770244,Mn3BiO8,0.07958672104166986
mp-779205,Li3V4(OF3)3,0.08984449912281711
mp-627606,V3(H3O5)2,0.07939617092105243
mp-849558,Cr4OF11,0.03326955549478683
mp-21445,Ba3In2O5F2,0.02001952874999624
mp-1561,TbSe,0.0
mp-771753,Li2Ti3MnO8,0.045798912321432184
mp-540566,V2Hg2O7,0.0
mp-11263,Zr3Au,0.0
mp-637389,Na3VS3O,0.11294694117187465
mp-693857,NaLi2Al3(SiO4)3,0.1132743413293662
mp-769061,Bi4(BO4)3,0.4252176686841631
mp-13573,Sc5Si7Pt9,0.0
mp-766147,Li2V4OF12,0.05729650052632085
mp-767029,CaMn7O8,0.03252938062499844
mvc-11256,Zn(CrS2)2,0.0001540850000019134
mp-1063876,FeSe,0.04511836999999996
mp-683890,CsRe3(S2Br)2,0.0
mp-694898,Sr5La3Mn4(WO6)4,0.024370847796864936
mp-14373,Y3B7W,0.0
mp-510453,Ag3RuO4,0.06552045447916655
mp-779703,Na4Sn5O12,0.056260685238091135
mp-642810,HOF,0.362519107083334
mp-1096608,BaSrTl2,1.3723259056250003
mp-1093867,GaTc2Ge,2.728878093749999
mp-1098911,BaMg30CoO32,0.09304205901041752
mp-3191,Ho(FeSi)2,0.0
mvc-15217,Bi3(PO5)2,0.0702711513333325
mp-697367,NaP(HO2)2,0.03256009343749966
mp-18992,Ba2MnTeO6,0.0
mp-677529,Sr2La18AlSi11O52,0.0
mp-557346,ZnS,0.0006085794444445902
mp-504358,LiCr6P7O24,0.016012182794479912
mp-777704,Li2Mn3F8,0.08269935576923171
mp-867326,Al2RuRh,0.0
mp-778555,Li2Mn2(SO4)3,0.0002510180263151085
mp-997013,AgClO2,0.16843697000000102
mp-1078870,UGaRh,0.0
mp-7935,USbTe,0.1423118236111094
mp-763667,Li4Mn3(SnO5)2,0.05922567368420052
mp-764506,Li3Fe8(BO3)8,0.07802734992730898
mp-8033,PuF3,0.0
mp-38856,Mn2FeO4,0.03885061142857893
mp-771257,MnTlO3,0.030668872395835045
mp-555804,Na3Nd14(RuO6)6,0.0022176163559386453
mp-699368,Na3(W2O3)2,0.9559412165384682
mp-753737,Li3CuS2,0.035578362604166365
mp-1019565,Ca3Ga2(GeO4)3,0.0
mp-865803,Ti2MoPt,0.0
mp-706986,PH4NO3,0.0
mp-1028143,Mg14MnC,0.2281510907948369
mp-4957,CaNbO3,0.059171102312504324
mp-28349,H2NO2,0.20130593356439969
mp-775677,Li4Fe5P6WO24,0.08892777050003975
mp-1017081,RbMg6Ga,0.252332536875
mp-560308,BaZr4(PO4)6,0.0
mp-571143,TiCl3,0.0
mp-20072,LaCuO2,0.0
mp-769813,LiMnBO3,0.005335592777781173
mp-32450,VBr2O,0.010789659999999479
mp-766437,MgTi5O10,0.0017504333333544508
mp-768036,Mn(CO3)2,0.06773775083333257
mp-2131,SrN6,0.0
mp-1009079,CrTe,0.1694969487499991
mp-769975,Li2Cr3FeO8,0.1028042069682531
mp-756683,HfBiO4,0.019980563749998133
mp-15888,Ba2YIrO6,0.0
mp-1076324,BaFeO3,0.0005139179999957832
mp-778563,Mn3(OF2)2,0.04719633472222462
mp-571621,Ba3Na2(CN2)4,0.0011937445588214855
mp-2459,YbIn,0.0
mp-1097588,Zr2IrAu,3.2141552824479165
mp-562609,Mn(NO3)2,0.0
mp-989569,Rb2NaPbF6,0.0
mp-1021488,KMg6Ti,0.2702285079166669
mp-775918,LaTiNO2,0.03837629375600216
mp-2081,TlTe,0.0
mp-1065265,NaN3,1.0577530150000003
mp-1025208,Cs2PuO4,0.0
mp-1095145,TiReSi,0.0
mp-569264,NdIr5,0.09443159000000098
mvc-700,Ni(WO4)2,0.2290956703409055
mvc-16786,Zn(NiS2)2,0.19583366517857206
mp-999392,NbCr3,0.3791649574999969
mp-773971,Li4Mn2V3Cr3O16,0.07493951651488473
mp-1027033,Te3MoWS,0.10464894229166433
mp-1094659,MgGa2,0.04740043666666738
mp-530571,Na4Sn3O8,0.01305113433333105
mp-754636,ErBiO3,0.0513159501249989
mp-541108,Cd2Si(P2O7)2,0.0
mp-29676,Dy3AlC,0.0
mp-643086,MoP4C5S3O5,0.5438204540324403
mp-775864,NaCo11O17,0.0494288215948302
mp-3764,Te3P2O11,0.0
mvc-8553,MgTi2(PO5)2,0.13305293333333346
mp-19062,NdCrO3,0.14433578049999873
mp-1031806,SrMg6NiO8,0.18005565125
mp-1094333,Sr2Mg,0.15824565013888892
mp-683981,Rb8U9O31,0.004988091822912821
mvc-4645,Y(WO2)2,0.5420434567857235
mp-764396,Li3V2(O2F)2,0.06719882162877511
mp-8925,TlAg3Te2,0.24236459303571325
mp-767598,LiVPO5,0.06851064968751164
mp-7895,Rb2O2,0.0
mp-542208,Ba3NaOs2O9,0.0
mp-18894,CaCo(SiO3)2,0.008533726999996993
mvc-15861,MgWF6,0.0
mp-19359,NaFeO2,0.0
mp-722860,Na2MgH4(SO4)2,0.029211564676694838
mp-770226,Li3Cr3FeO8,0.10391616686771332
mp-23612,K3B6BrO10,0.0
mp-1099106,KCeMg14,0.18390303437499989
mp-1720,SmRu2,0.0
mp-622966,MnF2,0.003970499166666031
mp-752643,NaTi2O4,0.008830266785702534
mp-1868,VS,0.06869877375000223
mp-22758,U(SiIr)2,0.0
mp-4655,SrTl2O4,0.0
mp-15391,Na4TeO5,0.0
mp-20434,GdSnAu,0.01565387499999904
mp-770855,VCrO3,0.007987401624998114
mp-16783,Cd2Re2O7,0.04350899954545984
mp-1026716,BaMg14Si,0.13093975687499992
mp-1078867,SiRu,0.0
mp-771390,In2WO6,0.012710395694444545
mp-675395,H(CO)2,0.2880665632499824
mp-1093804,LiAgAu2,1.126121481
mp-675678,Nd4Ag2Se7,0.0867814054326903
mp-504355,Bi(PO3)4,0.01935832716911623
mp-764379,V2O2F3,0.05900385857146517
mp-781061,V3OF11,0.01671955616666132
mp-621395,Li2MnF5,8.228624999961909e-05
mp-559894,Sb2Te2O9,0.0
mp-686040,MgU2O6,0.028684653333343125
mp-1097224,Cd2InBi,0.9843736587499998
mp-689817,Cs4U2V2O13,0.0
mp-684887,Fe24N11,0.04629343542857178
mp-1097001,InAgO2,0.11060561249999967
mp-743773,Na3Ca18Fe(PO4)14,0.0
mvc-6218,Ca(WO2)2,0.489451883095235
mvc-5779,Ca2CuWO6,0.18212723650000304
mp-775753,MnSn(PO4)2,0.02634395770832665
mp-763291,V3O5F,0.0023809255555491404
mp-568202,Yb6Co30P19,0.0
mp-621981,TlAg(CN)2,0.2559132474505539
mp-5078,SrZnF4,0.0
mp-571090,ErMn2,0.09593538638888877
mp-584693,LiCuPO4,0.048501072500000575
mp-2731,TiGa3,0.0
mp-762707,Li3Fe(PO4)2,0.03058751169641738
mp-776679,LiVF4,0.058085426666676376
mp-18074,NdF3,0.17262570708333413
mp-778759,Ce(IO3)2,0.07901304433333323
mp-1018113,YAu2,0.0
mp-559113,ScH24C3S3(N3O5)3,0.024528400120816585
mp-755771,Sr3(AsO4)2,0.03272208461538462
mp-772304,Li2Ni(PO3)4,0.07287952741226801
mp-849604,Na4CrO3,0.10472514124999854
mp-4053,YbSnPd2,0.0
mp-21439,YbMnSi,0.05763708944444445
mp-621092,Tl2Pt(CN)4,0.06424114687252924
mp-772874,CaBi2O5,0.03057981807291732
mp-1022169,Mg6CuC,0.2854160796875003
mp-24409,PH4I,0.0
mp-4643,Nb2CuO6,0.04963671027777927
mp-626085,Si2H2O5,0.13819875583333285
mp-1098874,Mg30CoNiO32,0.000952998151041662
mp-765001,Li2Mn3TeO8,0.0012104440327425081
mp-30875,Ti2Sn,0.0004806374999963836
mp-557112,Li4Ga3Si3IO12,0.0
mp-29383,KGaSb2,0.0
mp-762454,LiCrO2,0.04190918250000042
mp-762482,Li2Cr3O6,0.08051831070707394
mp-540462,LiCrPO4,0.04275606095238249
mp-554051,H6CNF,0.07315633569444469
mp-972170,TbY3,0.020999949791666417
mp-32613,Ce5O9,0.0
mp-757419,LiTi(SiO3)2,0.037883845291666766
mp-672326,In3Ru,0.00046787249999979963
mp-5129,Y(CoSi)2,0.0
mp-2648,NbS2,0.003781888333334038
mp-567915,La3MnBi5,0.07927215888888918
mp-755049,Li3Cu3(PO4)2,0.09277545140625154
mp-758475,Li4(CuO2)3,0.008450281923077618
mp-1098958,Mg30VCdO32,0.030408239257813108
mp-766619,Li4Cr(PO4)3,0.08680084047355585
mp-1039355,CeMg2,0.010545653888889728
mp-40963,Na2ZnP2O7,0.00042925361110057736
mp-23679,PuH3,0.0
mp-760805,Li2AgF3,0.08501415416666712
mvc-12415,CaTi2O4,0.18873037660714154
mp-1022046,CsMg6V,0.5074136387499999
mp-690525,MnCO3,0.07972894599999948
mp-771055,EuZrO3,0.0
mp-29807,Hf27P16,0.00924444784882894
mp-865430,YTe,0.0
mvc-4297,Y2Co3(SiO4)3,0.1787101897500083
mp-774430,Li2MnF4,0.04680978142857306
mp-1079413,Zn(OF)2,0.3681323005000015
mp-1026597,CsMg14Sb,0.17376885083333327
mp-29231,Mo3S3Br,0.027157706011905702
mp-675671,Sc(VN)9,0.136106837192985
mp-753822,La2Se2O,0.0012840762777770465
mp-1026473,CsMg14Ti,0.2407953483333336
mp-1097531,BeCrPt2,2.4928394770000013
mp-775486,Li3Sb2(PO4)3,0.05803883512500008
mp-705516,Li10Sn(PSe6)2,0.012213971399997359
mp-2674,YPt2,0.0
mp-772057,Li3Mn2VO6,0.08380270875000129
mp-1028708,Te6MoW3S2,0.0776453295833317
mp-19136,TbFe3(BO3)4,0.0013017364687488704
mp-1028947,MoW3(SeS)4,0.01305101666666797
mp-756578,LaMgI5,0.014744466428572968
mp-675156,K3NO,0.6553174363333327
mp-1022540,Mg6ZnSb,0.10153930135000012
mp-1096097,Sr2LiIr,1.61907598
mp-31874,Fe(PO3)4,0.04507095398285177
mp-850750,LiV2P4(HO8)2,0.05105852520000642
mp-37331,Sr2Co2O5,1.589404159999999
mp-638276,LiEu4C3(IN2)3,0.0
mp-19196,La4Co3O10,0.059854876176475
mvc-12762,CaMn2(SiO3)4,0.06575164986843696
mp-973981,LuBrO,0.0
mp-764827,Fe2CuAs2(HO5)2,0.03595111428920461
mp-608717,EuMoClO4,0.0
mp-32523,LiV(PO3)4,0.01747863541667538
mp-1023396,Mg6AlNi,0.1828229225000002
mp-756050,TaCuO3,0.02287858649999741
mp-631316,Li2GaSb,0.04917602416666656
mp-772053,ZrMnO3,0.029668769000002367
mp-981247,Zn7Sb8Ru9,0.0
mvc-14518,MgMn2O4,0.12286626250001298
mp-743567,Li2Ti4Ni(PO5)4,0.005120180322593981
mp-705089,LiFe3P3O11,0.044881823750003484
mp-16287,NdRh3C,0.011939379833333595
mp-3406,U(SiPt)2,0.05896767500000076
mp-772332,Nb3Co(PO4)6,0.00368708132353035
mp-1096415,HfScTc2,3.7445588953125
mp-19338,LiMoO2,0.010981307812503616
mp-698557,La5Mn6O18,0.03676286698275888
mvc-9604,Ca(AgO2)2,0.20452869214285752
mp-775262,Fe5O3F7,0.11541423966666553
mp-974616,Pt3Rh,5.307250000186059e-05
mp-16796,Sr2GdRuO6,0.0
mp-775258,Li4MnFe3(BO3)4,0.004209885486111453
mp-1029037,MoW3(SeS3)2,0.011282775833335812
mp-19225,FeAgO2,0.0
mp-560821,Ca2SiO4,0.03740161250000097
mp-721053,Hg3H4S2O11,0.0030958742175908327
mp-770346,Li2VBO4,0.10369736781249994
mp-864900,Hg,0.0007825920689655264
mvc-9297,PrMg(SnO3)2,0.2188973504999998
mp-2143,USe,0.0
mp-17872,Ba(YTe2)2,0.0
mp-622501,K3Na(MoO4)2,0.0002723533928579158
mp-703273,KBaLiZnF6,0.010297030999997679
mp-567910,CdHg6(As2Br3)2,0.0
mp-571571,CeTe3,0.0
mp-762612,Li4Mn(Ni2O5)2,0.03107398578947773
mp-2218,Er5Mg24,0.002291854827586537
mp-12817,Tb(Zn10Fe)2,0.0
mp-6586,K2NaAlF6,0.0
mp-763647,Li2FeP4O13,0.07378068907291357
mp-11905,LiNd2IrO6,0.0
mp-1237,UGe2,0.03808709916666686
mp-559020,KBi(PO3)4,0.0
mp-569957,Cd3N2,0.4023538572980003
mp-16094,Ba6Si25,0.023659396532258008
mp-5515,Li7MnN4,0.0
mvc-9400,Ba2AlSn2F11,0.04135843434895836
mp-1079978,LaNb2O7,0.19880352318750028
mp-30317,Sr2AuN,0.016279338750000427
mp-768059,Li7Ni9O16,0.022898560859373696
mp-566219,FeH14C4NOF4,0.10552463652499976
mp-24996,Na3FePCO7,0.0
mp-1021520,BaMg6Ti,0.2520780302827377
mp-697020,LiAlSiH2O5,0.01388730608333244
mp-17329,PrS2,0.0007575866666673647
mp-1010136,Cu,0.03515051000000025
mvc-3090,V5Zn4(TeO6)3,0.10606737501851704
mvc-6712,ZnCuP2O7,0.02451929846590861
mp-1097131,NaCd2Rh,1.337920626875
mp-697786,LiNi2(PO4)3,0.13213246847222138
mp-1096243,NaMgHg2,0.7278263143750001
mp-1036823,Mg30NiCO32,0.13345179289062514
mp-1006127,Pa3Mo,0.23587671375000066
mp-29344,LiGaCl3,0.0
mp-569416,C,0.027549244999999445
mp-780797,Fe10O11F9,0.07405879089582879
mp-1017184,Mg6CdBi,0.060476121249999786
mp-1071337,TbAlGe,0.2308109177083315
mp-542680,Na3In2Au,0.0
mp-1076217,Sr3Ca5TiMn7O24,0.08232735514880662
mp-850031,Li2Fe3P4(HO4)4,0.02158309482758813
mp-7493,CaSb2,0.0
mp-849478,Mn6O5F7,0.07412275618056796
mp-1036610,Mg14AlZnO16,0.09221676781250032
mp-1071462,CeRu2,0.009546343333333596
mp-1023125,MgCuO2,0.07672233874999979
mp-36508,SnHgF6,0.0
mp-1038759,Mg2Bi,0.13432572833333326
mp-642571,CuMoO4,0.028294405416653845
mp-133,Sb,0.048567055000000366
mp-1076317,MgCuO3,0.5153254926249984
mp-642731,CeH3(CO2)3,0.13792525971154035
mvc-13252,Ca5La10Mn14(NiO24)2,0.016099256951461527
mp-978281,Mg3Ga,0.025424846250001742
mp-772582,Sr3W2O9,0.10885644190476283
mp-554840,H13C4NF2,0.12247104475000015
mp-767875,Li3FePCO7,0.052928634038461375
mp-745101,V2Cu3H6O11,0.030364908522726008
mp-29820,Ca3(AlN2)2,0.0
mp-1095777,Zr2GaCu,3.304382668541667
mp-11698,Tb,0.0
mp-669381,Pb2OF2,0.10474997200000667
mp-561424,KAlF4,0.0
mp-780870,Fe4O7F,0.11791564796874088
mp-550679,Rb4CO4,0.20071973222222186
mp-1028316,RbMg14V,0.2375558106250002
mp-772381,V2SiO4,0.0
mvc-5727,CaCrP2O7,0.0037875759090901795
mp-12533,La2Hf2O7,0.0
mp-763789,Ti3Cu2P6WO24,0.06210417694444281
mp-23752,Cs2MgH4,0.006869112285713186
mp-558681,PClOF2,0.0
mp-23063,Ba4Cl6O,0.0
mp-567735,Nd5Si3,0.0
mp-1307,LiGa,0.0
mp-540543,Mn3(CoO4)2,0.010419842788467193
mp-1028843,Te3MoWSe,0.030029195624998724
mp-1096864,C3N,0.9267228475300008
mp-14368,SbAsO5,0.0
mp-15988,Li2CuSb,0.0019254654166664946
mp-1023398,Mg6AlSn,0.0708849885576921
mp-864684,Hf2MoIr,0.0
mp-13229,K3GdF6,0.0035444639999990812
mp-1027492,MoSeS,0.013937918333333243
mp-568075,NbCoSn,0.8679957166666661
mp-756052,Ca3Zr2O7,0.04674075624999752
mp-2686,Ca2N,0.0
mp-560493,Ba2V(CuS2)3,0.04033114083333178
mp-23373,BaZnCl4,0.0
mp-1094660,MgGa3,0.044399553124998985
mp-1074922,Mg3Si4,0.24019874190476154
mp-331,ScAl,0.0
mp-674993,KPb2Cl5,0.013083756874999963
mp-19063,ErCrO3,0.0
mp-754409,HoBO3,0.026844045333334062
mp-1098071,CsMg6C,0.3747786209375006
mp-979980,VPd3,0.0
mp-1027954,Mg14ZnB,0.19111164317499998
mp-972511,Sm2AgSn,0.009531192083334972
mp-926,PuP,0.0
mp-1096308,AlFeRu2,3.5548946262500003
mp-4163,Ca3Ti2O7,0.002666410624998505
mp-761828,LiCoPO4,0.06920985089285914
mp-30794,Na15Sn4,0.0
mp-569304,C,0.028688697499999805
mp-22879,PuBi,0.0005864350000006624
mvc-11995,Ca(CoO2)2,0.06266113678570129
mp-1028830,Te2MoWSe2,0.030888236666667623
mp-1008635,WC,0.6688075900000001
mp-4106,YbSnPd,0.016114630555555287
mp-37879,LiYSe2,0.01763555999999955
mvc-15302,YTi2O4,0.24752014714285764
mp-774466,CoP6(WO8)3,0.019660414252443914
mp-1038702,SrMg30NbO32,0.09769378756250012
mp-744193,Ca2CrH2I2O11,0.009923228333333256
mp-780856,Co6O7F5,0.09996023173610967
mp-20995,Eu4As3,0.0
mp-567620,TlCoCl3,0.0
mp-866019,LiNdTl2,0.0
mp-5572,Ho2Te5O13,0.0
mp-800,TmB2,0.0
mp-21188,CeNi,0.0
mp-15722,Fe2B4Mo,0.012393075714285828
mp-1003319,CaMn8O16,0.006258868175001098
mp-775971,Li5Sn5(PO4)6,0.09720057448957677
mp-684691,Tm23Se32,0.0
mp-1096146,Y2RhPb,2.3164839209375008
mp-21833,Mo4P3,0.015014337857140347
mp-771636,Li(CoO2)2,0.10499904321428576
mp-862912,PmHgAu2,0.0
mp-778723,Li3MnFe2(BO3)3,0.004574899259258025
mp-765720,Li3Co2O2F3,0.14774279100000245
mp-1080319,CeSe2,2.35654764125
mp-764355,LiFeSiO4,0.05539854928570698
mp-975882,Li3Cu,0.02428309833333353
mp-632723,MgPHO9,0.8605165204166685
mp-9343,ErAgGe,0.23397663999999985
mp-1074093,Mg9Si5,0.1797339185714284
mp-1020060,LiB(S2O7)2,0.0
mp-559859,Fe2(SO4)3,0.0
mp-580802,Ce3CCl5,0.0
mp-866648,La(ZnAs)3,0.0
mp-18348,KGaP2O7,0.0
mp-565897,KNaMnO2,0.0
mp-849448,Li2Fe2CuO6,0.10393167835226967
mp-733614,H8S(NO3)2,0.17610508418151927
mp-18938,Tl2MoO4,0.0
mp-5693,NaCrS2,0.0015656174999998385
mp-865148,PaAlTc2,0.0
mp-761490,Li6V3P8O29,0.024733968822476804
mp-21491,Y3GaCo3,0.0
mp-675742,PNO,1.5106009872222232
mp-1098824,Mg30TiZnO32,0.0552898970703124
mp-1080251,CeSe2,0.034871332916667434
mp-605052,PH3W(CO)5,0.6398976543333328
mp-772710,Li2TiNb3O8,0.09821020298077696
mp-1033065,CsMg6AlO8,0.6443688600000009
mp-23391,Tl4CrI6,0.01807609818181888
mp-1095161,SmMnGe2,0.08407823787499867
mp-556498,Sr2Be2B2O7,0.005455330384593005
mp-13189,SrLuCuS3,0.0
mp-542802,YCuPbS3,0.0009667179166674699
mp-770088,Li3VSiCO7,0.03520294889424935
mp-1078125,NdIn5Co,0.0033903349999997445
mp-1066609,VFeCoSi,0.010635407473960969
mp-1077852,SrB6,0.0006907071428559064
mvc-8876,TiZnBiO5,0.08078874385416679
mvc-3972,Ca2SnSbO6,0.07567201009999991
mp-652144,Cs3Mo5P6O25,0.0469486835256383
mp-772979,Li3Zn3(Ge3O8)2,0.027621158214285124
mp-745154,MnZn2Si(HO3)2,0.13122739482638135
mp-1020648,NaLaSiO4,0.0
mp-557019,RbErSeCl2O3,0.0
mp-25591,NdNiO3,0.0
mp-561545,Sn4P2O9,0.005933730416663785
mp-765922,FeCo3O8,0.08509789994791639
mp-850901,Fe3(O2F)2,0.0850008168750005
mp-608402,Zr2InPd2,0.13134497550000024
mp-11171,LiRhF6,0.0
mp-30477,LiCaSn,0.0
mp-753673,BiOF,0.09353604499999957
mp-626729,Ga(HO)3,0.013018332499997952
mp-753755,Bi3O4F,0.039262444062496016
mp-976581,Nd3I,0.35800561281249976
mp-686347,Ca16MgAl14Si9O56,0.3637476142187479
mp-1099231,CsRbMg14O15,0.30676203044354544
mp-1013807,Li3Co2(GeO4)3,0.1491356934375032
mp-21499,YbInPd,0.0
mp-1031319,Mg6TiBO8,0.470433718265622
mp-30683,ZrGa2,0.0
mp-571634,Yb5Pb3,0.04518656437500024
mp-27634,TiBr4,0.0006199877499994955
mp-562284,LaYbS3,0.2749102389999987
mp-772741,Li2Mn3SnO8,0.04799921558034459
mp-19580,Ti2Ni(PO5)2,0.0
mp-556172,SiPb4(BrO)4,0.0
mp-865660,Yb2AgPt,0.0
mp-776134,Li4MnV3(P2O7)4,0.002915726411027997
mp-686239,Sr5Li25La7Nb8O48,0.10041405061827556
mp-532676,LiMgAl3(SeO4)6,0.00860800540476081
mp-1022612,Mg6ZnSn,0.06299161072500015
mp-22979,GaBiO3,0.2262499503750055
mp-3385,Sr(PPd)2,0.0
mp-631564,MgBe2B,0.7383271062500003
mp-760655,Li3Bi(PO4)2,0.06493903571429005
mp-1019606,Cs2Li2B2P4O15,0.0
mp-770327,Li4Ti3Fe3(CoO8)2,0.0998699814158206
mp-762882,Li8FeNi9O20,0.0199386362829026
mp-776260,Zr2N2O,0.004871292249999826