mpid,formula,e_hull
mp-849422,Li4Cr3Co3(WO8)2,0.06578617089285199
mp-567076,Li2BiAu,0.0
mp-30620,DyRh5,0.08814756666666579
mp-12553,PrAl3,0.0
mvc-9059,ZnAgBiO5,0.0973609973958336
mp-6829,Ba3Y2Cu2PtO10,0.008144572129633154
mp-6858,RbCS(OF)3,0.11014016624999813
mp-23015,Cs3Mo2Br9,0.0
mp-763150,V6CuO15,0.03314091954542775
mp-631421,CrGaTe,0.7374866850000013
mp-744024,K2MnH8(SO6)2,0.0036384711000012615
mp-624187,Y5Bi3,0.0
mp-961672,SrAlGa,0.7930947941666671
mp-1029595,Na3OsN2,0.0
mp-1093780,Nb2CrRu,4.106489057500003
mp-684650,TiS2,0.003685699999999237
mp-989460,B2(CN2)3,0.17871956163454428
mp-559373,Ge4PbO9,0.006253418482172536
mp-4969,TbCoSi2,0.0
mp-560224,H6NO2F,0.248365258924653
mp-27179,CsCrBr3,0.059243270666668124
mp-1076585,SrFeO3,0.0
mp-1078610,EuGe3,0.02696354874999951
mp-867156,ScGaRu2,0.0
mp-25527,FePO4,0.021343115277778324
mp-766328,Ag7Sb9O25,0.052189610243901896
mp-767621,Li4Mn8O9F7,0.07488773868303955
mp-29564,Ba2Mg3Si4,0.0
mp-1009,SrSi6,0.07343615499999956
mvc-13423,Mg2CrSbO6,0.08424412250000922
mp-6397,Na2Ca(SO4)2,0.0
mp-1096203,ZrPdAu2,2.45762085770833
mp-561462,Ba2Nd2Si4O13,0.0
mp-567391,Dy3Se3N,0.0
mp-561081,CuH10C2(NO)8,0.2658545400016088
mp-12024,RbVSe2,0.0
mp-1078968,LaCoSb2,0.061594327499999935
mp-773210,NaFeAsCO7,0.04318341350378674
mp-416,Cr3Os,0.012992612499999723
mp-31052,LaBPt2,0.0
mp-761831,Li3Cr(CoO3)2,0.013075084166666251
mp-2707,USb2,0.0
mp-1027093,TeMoWSeS2,0.07127419750000019
mp-1096438,Mg2CuPd,1.7124870906249998
mvc-673,AlCr(WO4)2,0.1466908777243532
mp-760991,NaNb2O4,0.016613886285711033
mp-779074,Li8Mn7Fe(BO3)8,0.005647889201386924
mp-733936,Cs2MgH8(CO5)2,0.0
mp-3790,SrNb8O14,0.0