mpid,formula,e_hull
mp-1030292,Te2MoWSe2,0.04974845833333319
mp-621964,K2RbBiSe3,0.0
mp-773324,Li4Fe3Ni5O16,0.08938008957589183
mp-676473,Te6H6S(Cl13O2)2,0.021455229321706067
mvc-15479,CaLa2WO6,0.17843582750000486
mp-669573,EuBi2IO4,0.5392967828124995
mp-863675,LiPm2Ru,0.0
mp-868628,MnV3Cu2(PO4)6,0.029613806388876007
mp-566066,NaFe3Si3O10,0.002780496470592197
mp-644494,Rb2H4Pd,0.0
mp-981808,Sm2As2O5,0.7069658339814815
mp-19769,Tb3InN,0.0
mp-765067,LiVCrP2(HO5)2,0.0008587388235286043
mp-22921,TbBi,0.0
mp-691138,YCoO3,0.020888987624994467
mp-771870,LiMn2(PO4)2,0.021826807371796875
mp-19692,Mn3V2O8,0.0
mp-553961,ScNbO4,0.0
mp-1039426,Mg3Cd,0.03716372500000032
mp-979270,Tb2AgIr,0.0
mp-1100862,YbAlF5,0.01095182874999967
mp-999127,NaTbSe2,0.0
mp-556098,NaFeF4,0.0
mp-685069,Sc2Te3,0.0
mp-1013916,Li3V2(GeO4)3,0.08988024062503898
mp-1039028,CaMg5,0.11897531416666653
mp-7999,Y2Si2O7,0.0025206390909016108
mp-1004756,NdB12,0.05092520076923002
mp-6625,LaAgSO,0.0012635556249982474
mp-1095738,BaCdHg2,0.9950748378409084
mp-776054,Li2MnCuO4,0.08531562562500118
mp-585210,Co3P3O11,0.03618657411763858
mp-557121,K2Sn(AuS2)2,0.0
mp-765182,Li3VF7,0.05352946318177665
mp-581259,K2U2WO10,0.003585499083333943
mp-1098678,CaMg30CuO32,0.027126618359375243
mp-540690,CsV2O5,0.0
mp-690597,Cr2FeO4,0.14314322428571558
mp-1016593,Mg6NbBi,0.17739233750000016
mp-7779,Li2NdAs2,0.11620566566666568
mvc-5278,MgCr2O4,0.17519657380952225
mp-722906,Na3CuB8H17O23,0.02007358990384489
mp-8654,PrSiRu,0.0
mp-41734,Na8Al6Si6SO28,0.0
mp-1037593,LiMg30FeO32,0.03203402429688662
mp-555322,Eu2SiCl2O3,0.0
mp-1096170,TaSiRu2,3.70679421875
mp-761458,Li4Nb3V3Cr2O16,0.057342821941977824
mp-1079889,ZnAg2SnS4,0.0
mp-31121,HoScO3,0.036719114750001225
mp-762609,Li2CrCo3O8,0.037628495773809334
mp-1080787,Sr2GdRuO6,0.00735267049999777
mp-762914,LiNiPO4,0.07603900357143267
mp-776760,Ti3FeSb2(PO4)6,0.08466320481483612
mp-762240,K2Li2TiO4,0.005065198240749247
mp-22144,Ta2InC,0.06332047875000058
mp-1074616,Mg2Si,0.26182303999999945
mp-1097595,BeInPt2,2.0467362010000008
mp-1068653,CaSi3Ir,0.0
mp-505262,GdCuSeO,0.0038370381250008015
mp-971922,DyYAl2,0.017332258125000166
mp-1034797,RbNaMg14O15,0.2073607565725819
mp-569824,Te2WCl6,0.024511727777771768
mp-755947,Li3(CrS2)4,0.02656060770370328
mp-149,Si,0.0
mp-775115,Li2TiMnO4,0.07170721687501214
mp-1022457,Mg6TiFe,0.3845237962499999
mp-763408,Li3Co2(CO3)4,0.04758406154761642
mp-560339,Ca2Zr(SiO3)4,0.005295602631575136
mp-974641,K3Tl,0.08358361395833325
mp-23445,Bi2Ru2O7,0.0
mp-780491,Fe4O3F5,0.08467376541665939
mp-23409,Pr12C6I17,0.0
mvc-7965,VAs2O7,0.08660276368749997
mp-778412,Co2O3F,0.09544881370833293
mp-867263,ScCdHg2,0.0
mvc-580,ZnFeO2,0.2156952918750008
mp-30052,Ni6Mo6C,0.00039000467948646634
mp-27191,Zr9S2,0.0
mp-772488,VBiO3,0.01089613687498492
mp-1096515,Hf2CrIr,3.8473191781250025
mp-680205,PbI2,0.0031216088888883498
mp-3527,Na3AgO2,0.0
mp-978906,Sm3Dy,0.015220471458333053
mp-540627,K2Ba(SO)12,0.01946146419080552
mp-1095850,LiSc2Ga,2.4688296910937497
mp-569496,Ce(SiAu2)2,0.0
mp-29717,Ag(W3Br7)2,0.014163970853176444
mp-23720,BeAlH5,0.011716390952380971
mp-1078876,ErSnIr,0.0
mp-762805,Li4Mn5(FeO6)2,0.04951902021737187
mp-778032,LiV2(SiO4)2,0.07670523644240568
mp-757966,Li3Sn2(PO4)3,0.09191813270832938
mp-1057118,MoN,0.3329486243749997
mp-1079878,Te(NCl3)2,1.0104991790764188
mp-570123,Cs3BiCl6,0.0
mp-1095294,SiS2,0.021961429166666768
mvc-9981,Mn2ZnO4,0.05363220928572154
mp-542459,BaGa2(GeO4)2,0.015182300192308597
mp-1080619,TmZnSn2,0.004375167720588102
mp-779199,V3OF11,0.010472888499994506
mp-683904,Yb2Te5O13,0.0
mp-1095754,Sr2LiCd,1.2374606233333334
mp-558298,Zn3TeAs2Pb3O14,0.0
mp-561845,YbAu2F9,0.0
mp-764976,Li2Cr(PO4)2,0.05826860918497534
mp-27292,Hg3As2F12,0.0
mp-504607,YInO3,0.004661116666665244
mp-559398,Tm4Mo4O11,0.1812742671052625
mp-5363,Hg2TeO5,0.015205914270834953
mp-686085,Sc13Cu13O33,0.10475628346399546
mvc-9656,CaPr(MoO3)2,0.0
mp-769491,Li4Ti2V7O18,0.08811200259407492
mp-764846,Li2MnF4,0.059824829761905285
mp-554994,Ta2Tl3Cu3S8,0.0
mp-638038,SiO2,1.2418585904166628
mp-560961,H11C10NO8,0.26593387295833004
mp-3884,Ho2Sn2O7,0.0
mp-759396,LiBi3(P3O10)2,0.06489889333332233
mvc-703,YMn(WO4)2,0.029694701875003563
mp-644118,H5N2Cl,1.611580186676667
mp-765486,PrAl22O34,0.04582123155702522
mp-571334,PrCo3,0.0029413405654743485
mp-601228,NaH2CSO4F3,0.725342621614586
mp-9511,K2AsAuS4,0.0
mp-758587,Li2CuPO4,0.05694252843750203
mp-865236,Tm2ZnOs,0.0
mp-778341,Li4Mn3Ni3(PO4)6,0.07069075306248697
mp-778539,Li2CoBO4,0.10582622531249974
mp-1016197,MgSiAs2,6.468753472255173e-05
mp-764882,Fe4O5F3,0.07949554223958355
mp-1026712,NaMg14Si,0.06176591662499975
mp-581678,LiEu2Si3,0.0
mp-715572,Fe2O3,0.0
mp-562057,Cs2Ca2Be3F12,0.0
mp-770462,La2Bi2O7,0.0
mp-12983,ScSb,0.3234918249999996
mp-20526,PbS,0.05985207250000003
mp-5452,Ce(CuSi)2,0.0
mp-29303,Tl4Sn5S12,0.012941528928570813
mp-568692,In4Br7,0.015681001306818487
mp-540676,MnH4(ClO)2,0.0
mp-674017,Nb17Ir3Se40,0.016952600625000258
mp-566123,Mn2Si2Pb2O9,0.11162875062279998
mp-2611,BaGe2,0.0227190291666668
mp-1031271,KMg6BO7,0.7751443706666672
mp-581425,ZnS,0.00028011416666640093
mp-16307,Sr2MgIrO6,0.0
mvc-12610,MgVO2,0.3205529356250043
mp-972639,SmDyIr2,0.0
mp-1095470,Eu2ZnGe3,0.0
mp-989737,Ag,0.003061566666666682
mp-1024037,NaMg3O4,0.15316856458333386
mp-761702,LiCoPO4,0.08120204589285951
mp-743770,La4Mn5Co(PbO9)2,0.04282806566666508
mp-775356,Li4Cr3Cu2Sb3O16,0.10211577080355916
mp-1096720,MnCuPt2,2.5103585308333356
mp-766983,LiCa2Nb3O10,0.028287875937500925
mp-1019787,K2NaZn(BO2)5,0.0
mp-20624,La2(Zn2Ge)3,0.0
mp-779924,Li6FeO4F,0.09437016666666942
mp-733862,KCaP3(HO2)6,0.04498195858695818
mp-690573,Mn2FeO4,0.0
mp-755144,NaLiO,0.07094279999999831
mp-733898,Mg3B11(H3O8)3,0.27334496937234576
mvc-4117,Ca2FeSbO6,0.02478595649999881
mp-1032309,BaMg6CoO8,0.4196688247916667
mp-1097675,BePRu2,3.168036775416668
mp-774324,Li6MnFe5(BO3)6,0.004888800601853482
mvc-10350,Ca(NiO2)2,0.0959849283333334
mp-558155,KFeF4,0.0005050002083306637
mp-12955,HoAgSe2,0.0
mp-19875,GdSiRu,0.0
mp-1028857,MoWSe3S,0.027448200000001144
mp-559738,SbSNCl5,0.0958367781712659
mp-850227,LiCrPO5,0.06588061446873628
mvc-9600,Zn(SnO2)2,0.21708655607142813
mp-8966,K2Sn2Se5,0.0
mp-15974,Mn(CrS2)2,0.0
mp-752735,PdO2,0.2255619133333333
mp-754655,Eu2SeO2,0.0
mp-1036151,Mg14MnVO16,0.020977326431500742
mp-754711,Nb2Pb2O7,0.016639602575757806
mp-1029322,Te3MoWS,0.07112368812499792
mp-780041,Fe3(O2F)2,0.082011780208334
mp-3479,CaAl9Ni,0.0
mvc-513,BaZn(CuO2)4,0.1689742953348219
mp-764107,Na4CoO4,0.06504976541667595
mp-1094061,SmCo12,0.2032576830769237
mp-1028998,MoWSe3S,0.01127279500000089
mp-705571,Fe5CuO8,0.06804344714285726
mp-984791,CaTmCd2,0.01268696250000012
mp-32679,Nb10C7,0.0389387170588229
mp-998607,RbTlF3,0.039580870250000455
mp-30460,YNiBi,0.0
mp-1016680,Mg6NbGa,0.18198353666666645
mp-24913,CrPbO3,0.15099599339999514
mp-17020,TiTl2(GeO3)3,0.0
mp-19657,LaMnO3,0.0
mp-5999,Sm2Ti2S2O5,0.0
mp-567322,KSm2Sb3Se8,0.0
mp-755323,DyClO,0.0
mp-570226,Sm3CuGeSe7,0.0
mp-761967,LiMnSi3O8,0.08970052560439434
mp-8039,AlF3,0.0007604074999996158
mp-780642,Li2Co2OF6,0.09436472670454599
mp-763964,Li6Co3Ni5O16,0.06638562933333247
mp-1080866,CeSe2,0.5249926540277787
mvc-14772,V2ZnS4,0.0863022357142853
mp-28728,K6Sn3As5,0.0
mp-763345,Li2VO2F,0.104206881249997
mp-13415,Ta3B2,0.0
mp-1097372,BeFeRu2,3.5638168154166667
mp-571230,Dy4InRh,0.0
mp-1022974,Mg6MnSi,0.2383865521875004
mp-556520,CoF2,0.0
mp-1072259,LuSn2,0.0
mp-770759,LiBiCSO7,0.06361087992424252
mp-647814,U2O5,0.02611051767856409
mp-863685,Pm2GePd,0.0
mp-781688,Fe3O5F,0.10881133930555542
mp-684969,Sc2S3,0.0035592175000003228
mp-754629,WN2,0.06866830999999962
mp-1026832,KMg14Cr,0.1851841468750004
mp-765676,Li4Co7(OF7)2,0.05712462481481495
mp-12730,Ba2YbRuO6,0.0
mp-16534,BaSm2FeS5,0.04132094500000072
mp-757266,BaTi7O14,0.0012964285228562744
mp-30823,Pu5Os3,0.1331006950781255
mp-3317,SmRhO3,0.0
mp-680092,CdI2,0.0017161115555555106
mp-998986,Ti3Si,0.19250712069444464
mp-763489,LiVPO4,0.08319220073592692
mp-762516,Li3Mn3O8,0.06777039584821143
mp-570920,Ga5Fe6,0.02832249838068268
mp-28934,Ta2Te5Pd3,0.0
mp-722266,Na2GeH16Se3O8,0.018340616083339256
mp-766063,Na2W3O10,0.09412056733333428
mvc-5969,Ca2BiWO6,0.13848756733333456
mp-765454,TiCr7O12,0.028342712125008163
mp-1040283,KNaMg30O31,0.09393308638889143
mp-755401,Na3CuO2,0.0
mp-9480,KAlSiO4,0.002243956250000068
mp-1025356,ZnAsPt5,0.0
mp-27193,RbIO3,0.0
mp-1032452,RbMg6FeO8,0.4010514317187504
mvc-13455,MoN2,0.2712414134817802
mp-1098120,KMg6Nb,0.2927623587500001
mp-1097043,LiFeF3,0.17538809699999636
mp-1020146,Na2LiB5(PO7)2,0.0
mp-764883,Fe4O7F,0.11436497755207585
mp-757793,Li2Nb(PO4)2,0.0944024053461554
mp-626562,Ca(H8O5)2,0.052442672453704375
mp-19947,Pu2SnPt2,0.5880151037419363
mp-7210,Cd2B2O5,0.0
mvc-13972,AlBiO3,0.8646538706249949
mp-905565,MnAlCu2,0.03958836249999997
mvc-2447,CaSnO2,0.2255785968749935
mp-755328,ZrSn2,0.0
mp-764950,Li4CrSb(WO6)2,0.037654367374996944
mp-37839,Li7RuO6,0.01018224678571755
mp-850966,Mn6O5F7,0.07078714118056784
mp-31704,Tl2Cr2O7,0.044596459318177566
mp-11578,VZn3,0.0
mp-764790,Li2FeSiO4,0.0
mp-636256,LaCu6,0.006315419642858977
mp-778043,Li32Ti3Cr13O48,0.01720194083334814
mp-863909,Co3(AsO4)2,0.013862351858998423
mp-626201,H5ClO6,0.002442928645824516
mp-1079118,Ir(Br3O)2,1.0543793072222225
mp-5096,CaSiO3,0.2417112265000005
mp-1040014,LiMg30BiO32,0.03595390539062748
mp-17174,K3(Cu4S3)2,0.0
mp-1097529,BaTl2Pb,1.4967505047916645
mp-1075954,La5Sm3Cr7FeO24,0.1145333860937452
mp-974408,Re3W,0.12908779874999787
mvc-6039,Zn2MoWO6,0.12228940299999902
mp-17464,SrGeO3,0.0
mp-555874,LiAsS2,0.0
mp-1023284,HfMg6Al,0.15623364749999968
mvc-6276,MgCuBi2O7,0.18821143606061155
mp-771065,Li4CrFe3O8,0.0012398978125016669
mp-3428,SmBPd3,0.10606862854545528
mp-555256,Li4CO4,0.15715317388889005
mp-2767,TiGa,0.0
mp-22785,SmMnB4,0.0
mp-18515,NaGdSiO4,0.0
mp-568904,KTh(SbSe3)2,0.0
mp-707811,ZrH6NOF5,0.0
mp-932723,EuAg2,0.00459264999999931
mp-763057,Mn(CoO3)2,0.02546199638888691
mp-1078349,La2BiN,0.0
mp-1811,HgTe,0.1529532549999999
mp-556301,Li6CaCeO6,0.02464754107143019
mp-27129,Y7(O2F3)3,0.0753012678409064
mp-850277,SrCaI4,0.03466637958333374
mp-567904,Na2Mn(PO3)5,0.0
mp-997082,BiAuO2,0.0394587991145805
mvc-9210,TiP3WO12,0.0
mp-542812,GaTe,0.0
mp-1097349,SrHg2Pb,1.1988905816666664
mp-754538,HgPtO2,0.02041840395833283
mp-1095965,YZn2Au,1.903020350056818
mp-505780,Ge7Ir3,0.0
mp-771355,Li5Ti2Mn8O20,0.016040375236626936
mp-757428,Cd2Si(P2O7)2,0.03936675999999828
mp-1094096,Ni4O3,0.4579970242857128
mp-778409,LiVF4,0.08359078500000994
mp-865780,TiMn2Ga,0.037536743593750366
mp-764367,V2OF5,0.03811739906249922
mvc-10209,HoMg(CoO3)2,0.10050372156249933
mp-771879,Sr2LaCl7,0.0857934927499997
mp-753429,Li4Bi2S7,0.05814627895604385
mp-571275,Cs2UHg2Se5,0.0
mp-779249,Gd3TaO7,0.017808239545450633
mp-1063314,Ca2Rh,0.0
mvc-1817,Ba2MgCuBi2F14,0.04604324906250048
mp-632990,Li2PWO4F,0.2965068852777746
mp-1079200,SnNF3,1.2624282675239993
mvc-13424,MnZn2SbO6,0.08221757150001174
mp-639306,CeBC,0.0269049216388888
mp-972869,Sc2GaPt,0.001516131249998942
mp-17587,Ce2Zn2Ni5,0.003402686666667876
mp-1093994,ZnSnS3,0.16872102400000075
mp-1080785,ThAlRh,0.0
mp-21500,Yb2InCu2,0.013288752999998543
mp-849394,Li2MnSiO4,0.0055315837499989575
mp-647209,Ga4P4O17,0.1242042117499924
mp-1094046,Ti(HO)2,0.43624100105200014
mp-541410,Co2P2H4O9,0.00749215735293962
mp-755684,SrCa2I6,0.03729470861111128
mp-1026691,BaNaMg14,0.1253510015624999
mp-559352,Ba4Na(BiO4)3,0.0
mp-2675,MgNi2,0.0
mp-767450,CoPO4,0.003728149583333895
mp-27263,Rb2MnBr4,0.01246495380952206
mp-766170,Li9Ti5(SiO8)2,0.07469005593751367
mp-27612,BH7N2,0.21481367979166688
mp-18568,Na2Ge2S5,0.0
mp-695140,Ba4NbP4(O9F)2,0.21139351894396616
mp-16403,SnHgP14,0.0
mp-8231,ZrSO,0.02549688666666583
mvc-2971,Mg2Sb3O8,0.2854939568269188
mp-1094865,MgTi3,0.09048741749999943
mp-1018072,KTiS2,0.06657324750000004
mp-625913,TeHO3,0.02737656079165518
mp-1018102,ZrPd2,0.005906740416666168
mp-567337,Li,0.017122622500000073
mp-541909,Zr2(NiP)3,0.0
mp-5260,Ho(GeRu)2,0.0
mp-1099270,Mg6ZnFe,0.16198674447500006
mp-20452,Ba(MgPb)2,0.0
mp-3857,Ba3(PO4)2,0.0
mp-645842,SrAl2(SiO4)2,0.6930634040883232
mp-762760,Li2V(FeO3)2,0.3393732071401523
mp-24336,MgH4(ClO)2,0.0
mvc-13325,Sr2AlGaFe2O7,0.0975663584976152
mp-540409,FeP2O7,0.05183268697916876
mp-568621,Mg8BRh4,0.0
mp-556472,LiYF4,0.0006278625000062378
mp-755018,RbTaO3,0.05306672899999576
mp-1006617,ZnP2NO9,0.6225677851442271
mp-21382,Dy2AlGe2,0.01678576300000234
mp-19311,V2CoO6,0.010293092222223521
mp-7906,Al2HgS4,0.0
mp-707983,Ca2MgB2H16(CO9)2,0.024168353506102136
mp-772319,Li4Co3Ni5O16,0.032392735089290525
mp-555230,Rb2YGa(SiO3)4,0.0
mp-582585,SrCu2(PO4)2,0.02831766855769846
mp-1039549,CeMg2,0.1285880905555543
mp-771244,Li4Co13O28,0.053572710111108535
mvc-3243,MgCoPO5,0.09809085713541332
mp-767662,Li3Fe3(BO3)4,0.07868728551135984
mp-764481,LiMnV(P2O7)2,0.009889279523796368
mp-1094603,LiMg3,0.014989303124997688
mp-778830,Li10Ti2Fe3Co3O16,0.09417117823529253
mp-1075693,Mg5Si9,0.2485166502777765
mp-1029448,Li5OsN4,0.0
mp-778867,Li3Mn4(BO3)4,0.041417765615921816
mp-778230,Li4V3Cr3(CuO8)2,0.1078894070907701
mp-25608,V2NiP2(H4O7)2,0.008067351296294767
mp-861987,PaIn3,0.0
mp-1037359,Mg30ZnSnO32,0.053054122187500496
mp-29154,Hf2CoP,0.0
mp-865250,TmTc2W,0.0
mp-707727,H2C2N2O,0.195296898543174
mp-30272,U2Al19Co6,0.010390095833332502
mp-973529,LuB4Os,0.0
mp-862312,LiBePd2,0.0
mp-610652,TiMn2O4,0.005736504285723143
mp-570909,CuTe4H12C4N,0.09255635144886387
mp-1447,SmSe,0.0
mp-559043,KLaGeS4,0.0
mp-565717,PbWO4,0.0348976320833323
mp-978519,Sm2AlCd,0.014441345312500076
mp-4354,Tl(NiSe)2,0.02277169303333526
mvc-3827,Zn2Sn2O5,0.300817685277778
mp-23671,LaNi5H7,0.0
mp-765296,Li9Fe4(BO3)8,0.07254647168055328
mp-769642,Fe(CO3)2,0.06143717465277554
mp-9702,Sr3BPO3,0.0
mp-966591,Ca(BH4)2,0.0
mp-27578,As(S2F3)2,0.0
mvc-9120,CaCo2(PO5)2,0.09680082120833422
mvc-9683,MgSn2(PO4)2,0.07057847923076288
mp-867159,SmDyMg2,0.003455759999999586
mp-758708,Li2CuSiO4,0.07167349687500213
mp-30075,Ti4FeS8,0.008050718653850986
mp-1023397,Mg6TiAl,0.1680676550000002
mp-769464,LiLa3MnO7,0.0
mp-675452,Ti20H2N17,0.0
mp-985450,CaAcIn2,0.0
mp-1087474,PrClO2,0.4773361954166662
mp-705612,LiMn8O16,0.03405291074999717
mp-1038212,Mg30AlSiO32,0.10792744995117244
mp-1039309,Mg2Cd,0.06768611750000009
mp-637220,Gd(SiPt)2,0.0
mp-2685,HgPd,0.005435154999999803
mp-779993,Li2MnFe(BO3)2,0.0022681151388859178
mp-778640,Fe6O7F5,0.0944340742708345
mp-23675,H4BrN,0.0
mp-1097037,K2Ce2Fe4O11,0.08042374809210351
mp-27418,KAuO2,0.02815435499999985
mp-561066,TlS,0.02662877031250544
mp-643989,KHCO2,0.0867830035833359
mp-1096193,Zr2CrTc,3.6921690059374974
mvc-425,MgTi3(P2O7)2,0.2836783098311653
mp-779294,Na3Sb5O14,0.0789215412500015
mp-20023,PrIn,0.0
mp-540212,Li3Mo(PO3)8,0.019407383425961367
mp-1035195,Mg14VZnO16,0.02779338312500013
mp-864792,Nd3(CuSn)4,0.0
mvc-2582,Ba2YTlSn2O7,0.2893180933653996
mp-1028348,Mg14NiB,0.2465340628819445
mp-775620,CoOF,0.09616096624999937
mp-7305,SmZrF7,0.0023385144444443284
mp-761625,Li7V3P8O29,0.01939129910460301
mp-761658,Li2CoP2O7,0.04972337059025378
mp-695048,GdTi2CdO6F,0.14172244022726765
mp-27655,Te2I,0.0
mp-779254,Co2O3F,0.09045494020833278
mp-695172,CsMg12Al25Si29O108,0.02165530366999757
mp-3284,CeSi2Pt,0.0
mp-18228,Ba3NaSi23,0.017777902546296076
mp-2172,AlAs,0.0
mp-1093619,ScTlAg2,1.7241425637499987
mp-542915,TiAl3,0.0
mp-29901,Rb2Cd3Te4,0.0
mp-763828,Li2Co(CO3)2,0.03808130659090292
mvc-9995,Zn(MoO2)2,0.17000146214285472
mp-766417,Ba10Cu5O17,0.005220644375000028
mp-756880,KCePCO7,0.031551180227272546
mp-634591,Nd2Tl(MoO4)4,0.06478374899458217
mp-21105,PuSi2,0.0
mp-697268,AgH2SNO3,0.0563250144900449
mp-767146,Li7Ti12NbO30,0.026779218725002003
mp-1015076,CrN2,0.5754454483733316
mvc-6915,V2ZnO4,0.13456510285714085
mp-30816,Li2AlPd,0.0
mp-1077536,ZnSb2,0.1450385454166665
mp-762839,LiFe4(PO4)3,0.05289920037500373
mp-1064606,FeCo2Ge,0.02761879249999933
mp-866629,CaSnS3,0.18349925586111127
mp-674976,Zr9ScO20,0.07222783720833448
mp-181,KGa3,0.0
mp-1099225,CsMg6BO7,0.7733109934747464
mp-767789,LiV(PO4)2,0.07642013527778335
mp-556525,BaNd2PtO5,0.0
mp-583630,Ba2SnTe5,0.0
mp-641962,KAuC2(SN)2,0.12800622770833406
mp-979936,RbYb3,0.20736691
mp-32519,V(PO3)4,0.0036188932353322656
mp-1029850,K15Cr7N19,0.0
mp-761470,Li2Mn2Si5O13,0.020523096534084573
mp-7574,AlBMo,0.0
mp-23434,Al2CuCl8,0.0
mp-3867,Pr2Co7B3,0.022987624583337585
mp-763391,Li2Co(SiO3)2,0.011900689545443656
mp-1098587,Mg30BWO32,0.15545640438802089
mp-780978,Fe4O3F5,0.08854616666665915
mp-1096752,LiY2Pd,2.326754186875
mvc-12894,FeO2,0.11826758145833338
mp-559134,Eu3(AsS4)2,0.0
mp-32060,Li3Mo3(PO4)4,0.023709691955113854
mp-772592,RbFeO2,0.08905577187500048
mp-972924,La(Mg4Al3)4,0.027941502798408457
mvc-9558,Mg(AgO2)2,0.12266791065476212
mp-14796,KPt2Se3,0.0
mp-1009129,MgO,0.3375146600000001
mp-773188,Na3MnBSO7,0.05968744807692961
mp-571394,KC2N3,0.12708307874999925
mp-734299,Ce2H16S3O20,0.2938441964548
mp-1026828,CsLiMg14,0.16885421500000009
mvc-10233,MgTi3P3O13,0.12662610884463987
mp-568170,TbCl3,0.023858463749999892
mp-774417,Sn3P6WO24,0.0024687248529424717
mp-850136,LiFeOF2,0.03520962522223048
mp-1025540,MnCu2SiTe4,0.05660485468750043
mp-554706,AsSe(ClF2)3,0.0
mp-29485,Y4BBr6,0.0
mp-1008279,Co3Mo,0.05239728000000099
mp-2931,Li2TiO3,0.0
mp-571527,Cs2LiInCl6,0.0
mp-1018091,CaGaSnH,0.04908265937500067
mp-756564,BaYCl5,0.03578383428571108
mp-780745,Co3OF5,0.033940385416666
mp-773119,Na2MnAsCO7,0.0
mp-582751,Y5GaCo5,0.0
mp-752717,La2SiO5,0.00934885624999815
mp-22881,CdCl2,0.0
mvc-1065,ZnSnP2O7,0.039187399375000716
mp-29401,Er5C2Br9,0.0
mp-771789,TiMn3O8,0.09473046166667133
mp-21280,BaPbO3,0.026377151000001042
mp-12520,SrNi2Ge,0.0
mvc-13176,CaCr(Si2O5)2,0.0028552842708204906
mp-2643,Ti3Cu4,0.0
mp-622268,Ba2ZnAg2(SeO)2,0.03939853888888845
mp-571322,Nb3Ge,0.14384542208333428
mp-541638,K2(ReS2)3,0.0
mp-763364,Li4Co(SiO3)3,0.09247170117648107
mp-974869,Rb3Nb,1.1796130775
mp-2002,Cu3Sb,0.1747738662500007
mp-3141,ErInRh,0.0
mp-1057084,NCl,2.007498404484446
mp-9305,Mn4As3,0.05490105535714297
mp-774378,Li3Mn2Fe(BO3)3,0.001831950740742272
mp-1017482,LiHfMg6,0.1441434506250001
mp-28584,Tl2CuI3,0.009425990416667585
mp-1096177,Ti2CuIr,3.1047170495833365
mp-1056308,Sn,0.06593412500000008
mp-733590,TlCuHCO4,0.035126120052082044
mvc-8280,MgFeNiP2O9,0.0734426606101195
mp-1080356,CeSe2,0.5433386766203716
mp-2455,As2Os,0.0
mp-1026806,LiMg14B,0.17486383625000035
mp-772468,Li2Cr3(CoO6)2,0.0
mp-1095901,SrCaAg2,1.371510976875
mp-1388,DyRh2,0.0
mp-29514,PHF4,0.0
mp-977440,LiTiPt2,0.0
mp-554201,MoF3,0.016955074999994046
mvc-14138,Al2(FeO3)3,0.1705360587053537
mp-758324,Ti5Nb2O14,0.03291451671245048
mp-2705,VPt3,0.0
mp-768674,Cs4Zr3Se14,0.0
mp-10063,CdSnSb2,0.0
mp-1070498,Rb2Te2Pt,0.0
mp-30871,Ta3Sn,0.0
mp-981379,Zn3CdS4,0.01594607499999956
mvc-6553,Mg3Fe3(AsO4)4,0.034324924551285996
mp-27144,TlPO3,0.0
mp-1026560,SrMg14B,0.2855735066145835
mvc-12573,Zn(FeO2)2,0.1695794192857143
mp-402,CdP2,0.0009104449999997043
mp-600003,SiO2,0.008872872708334256
mp-743564,MnTlH2OF4,0.0
mp-946,PrIr2,0.0
mp-680512,Ce25Ni49P33,0.02862674103669338
mp-755219,ScTlO2,0.1043094092187502
mp-34375,Li7OsO6,0.0
mp-1079709,YbSnIr,0.0
mp-974972,Rb3Hf,1.17545557125
mp-567575,Cs2Na(C2N3)3,0.03875410601851748
mp-556755,K2Cu3Ge5O14,0.04038040193451575
mp-32506,Li3V2(PO4)3,0.03206566475000283
mp-1031242,KMg6SiO8,0.5145215291406258
mp-862890,AcAg2Sn,0.0
mp-12876,ThPS,0.0018043759060857312
mp-530984,Al22PbO34,0.01194707570175435
mp-15051,Nd(PdO2)2,0.0
mvc-10605,BaMgWF7,0.03741906599999911
mp-763228,Cr4OF11,0.03296568861978688
mp-23751,CsMgH3,0.0041437343333319285
mp-767862,MnCu4H14(SO9)2,0.04219228403846032
mp-30587,MgInCu4,0.0
mp-778500,Li5TiMn9O20,0.013231593233146377
mp-31288,La5Pb3I,0.0
mp-1093874,Cs2HgSe,0.5933344449999998
mvc-4983,Mg2MoWO6,0.051346095416667126
mp-1096675,ScBiRu2,3.0339583475
mp-4307,BaIrO3,0.048349323562499436
mp-1028668,Te2MoW3(SeS2)2,0.09192323166666848
mp-29107,Rb2Hg3Te4,0.0
mp-504218,Li6Fe3P8O29,0.04538129068387864
mp-755441,SrTaNO2,0.002761709499980114
mp-999563,MnCo3,0.09239362000000018
mp-1026606,RbMg14Sb,0.18554106687500016