mpid,formula,e_hull
mp-1067568,Cr3Fe,0.24423690250000085
mp-686526,NaCaAlSi2O7,0.2529747844791519
mp-1064228,Ti2AlCo,0.18362619937500035
mvc-16771,Ca(CrS2)2,0.058482559285715226
mp-6891,Sb2RuC6(OF2)6,0.09060446486111218
mp-761611,Li3V(Si2O5)3,0.03269406110000705
mp-990090,AlNi,0.0
mp-1099605,Sr2Ca2Fe(CoO4)3,0.07071462375000337
mp-999454,NaVS2,0.024285899017849392
mp-771847,Li2CuNiO4,0.05414083656250224
mp-769620,Li2VCrO4,0.007765554374999263
mp-570362,Sr5In3,0.010139566213235971
mp-23451,Cs3Cr2Br9,0.0
mp-571637,K2Cd2Te3,0.0
mp-762697,Li3Cr4P2O8F9,0.07708036307690325
mp-862565,ScBr2,0.0
mp-1018902,PrSbPt,0.0
mp-975031,RbBeH3,0.0030962933333338327
mp-29960,Ca(C2N3)2,0.11946537345272645
mp-705295,LiNiP2O7,0.0992859240719719
mp-1098871,Mg30CuCO32,0.14153023429687295
mp-550514,LaTaN2O,0.0
mp-13090,YMgAl,0.0
mvc-11730,YVO3,0.3535387275000001
mp-1032137,Mg6FeCO8,0.4509533699218738
mp-1795,NbF3,0.1682514792916665
mp-4584,Tl3BO3,0.0
mp-568018,RbSb2,0.0
mp-3432,ScNiSb,0.0
mp-707501,CdH24C4(BrN2)6,0.0
mp-862672,LiY2Rh,0.0
mp-29906,Mn4Nb7Ge8,0.02643050790726864
mp-645504,Yb23Mg4Cu7,0.0
mp-772241,Li3MnAl2O6,0.041188247916656984
mp-772482,Mn3Sn3(TeO8)2,0.05978550481770916
mp-612118,Kr,0.0
mp-861946,Er2MgAl,0.0
mp-1035599,Mg14FeSiO16,0.20493877554687234
mp-554552,Zn3P2H2O9,0.009086917343744894
mp-977239,Li3Th,0.4184021675000005
mp-683943,Na2MoC3SeN3,0.07283456001016031
mp-861590,Li2VF6,0.08832868277779049
mp-27774,NClO6,0.0
mp-631324,HfMnTl,1.2271433820833335
mvc-15886,AlCoF5,0.04597821000000302
mp-1084796,CaZn3Se4,0.1303799312499998
mp-773712,Li2TiCr3O8,0.03723546162698277
mp-1071541,YbBr2,0.00034585333333270185
mp-1030580,TeMoWSeS2,0.054996766666667085
mp-772925,Li4Ti5O12,0.026271285000007083
mp-962071,MgScTl,0.3851496383333329
mp-2665,PrRu2,0.0
mp-999396,Nb3Ni,0.13582367625000025
mp-677549,Ca2Al2SiO7,0.33285118937499897
mp-977324,Ga3(Ni10B3)2,0.0
mvc-14389,Zn(NiO2)2,0.0
mp-37605,LiNdSe2,0.007582971562499984
mp-2378,Th3Al2,0.04846988833333389
mp-755463,Li3SbS3,0.038010797142857385
mp-1094154,Ca3(MgZn2)5,0.00818779517777779
mp-1096433,LiBe2Os,2.75484806125
mp-1030722,Te2Mo3WSe6,0.02235268916666655
mp-1099085,CaCeMg14,0.10872867781250006
mp-764359,CrOF,0.09120914305554173
mp-1098728,Mg30MnZnO32,0.007800233203124841
mp-1026618,CsMg14Bi,0.16619427875000015
mp-21394,EuO,0.0
mp-974713,K2H4Pt,0.0
mp-19895,NiSb2,0.0
mp-14383,KGePO5,0.0
mp-31434,Np3Al,0.3893049307812504
mp-31295,La3(Sn3Pd2)2,0.0
mp-851256,Li4V3P8O29,0.04772472155303476
mp-4300,Yb2Si2O7,0.0
mp-680460,Rb2Cd2(SO4)3,0.5675400089473621
mp-867218,SmAgHg2,0.0
mp-757220,LuH6(ClO5)3,0.0
mp-694564,Li2Fe(PO3)8,0.07917142489881446
mp-1008228,SnPOF7,0.008107129178572592
mp-562673,Na2ZrCo(P2O7)2,0.027500463775258943
mp-540688,SrIn2O4,0.0
mp-3916,K2(SO2)3,0.01669382576086864
mp-1095995,NaTlHg2,0.7114509687499999
mp-1037549,Mg30VCuO32,0.03122156343749971
mp-777718,Li2MnF4,0.10153656357142984
mp-698594,Sm2Mo2O7,0.3640540927272351
mp-31635,Cr2P3O10,0.05334188769442783
mp-14780,Na6MnSe4,0.0
mp-1057889,Dy,0.01455418833333244
mp-779463,Dy2P4O13,0.020563849078943264
mp-568649,Fe2B,0.0
mp-561534,Co2SiO4,0.03481439857142465
mp-775565,Li4Nb2V3Cu3O16,0.07962806258035737
mp-13744,Rb3GaO3,0.0
mp-25131,VCdO3,0.056024408000001635
mp-1098241,NaMg6Mo,0.22049678437499987
mp-974973,HfZrZn2,0.010231111249999536
mp-974606,ReH6CN3O4,0.0060147464378514925
mp-1022651,Mg6ZnFe,0.22346020822500007
mp-540262,CoP2O7,0.09448840618749887
mp-770539,Li5Ti2Ni5O12,0.026260659285704868
mp-771620,Li3Fe3O8,0.10179281803571527
mp-27093,Li3Sn2(PO4)3,0.0463654358333292
mp-684725,KMgH5(SO5)2,0.7786004435197373
mp-33056,Rb6C5,2.2034513918749985
mp-556376,SiO2,0.4240073966666662
mp-19567,Li6Ca12Mo4N16O3,0.02718535040396386
mp-13674,NaGeAu3,0.0
mp-861527,Li2CrFe(PO4)2,0.015431374226190897
mp-863740,Pm2IrRu,0.0
mp-32123,LiMo2PO8,0.02424759515873021
mp-1093664,Sr2AgPb,1.4797148021875
mp-25027,NaLaMnWO6,0.0
mp-565587,V3Cd5P6O25,0.0
mp-555924,Ca5Nb5O17,0.00837373885417314
mp-8953,YbAsPd,0.0
mp-974527,NdSmZn2,0.0043183999999998335
mp-685023,Sr4N3,0.2319348385714264
mp-1093740,ScVTc2,3.6203160403125
mp-1070440,VPbO3,0.1198660202500017
mp-555866,K6Be4C6O19,0.0
mp-571172,In2Bi,0.06448658333333368
mp-555235,SiO2,0.003302879166666273
mp-989523,Rb2NaAsF6,0.0
mp-31148,BaZnSn,0.0
mp-770388,RbFe3O5,0.06930368500000661
mp-614481,GdBi,0.0
mp-757101,Li2Cu(Si2O5)2,0.08430577205882539
mp-647352,Rb2Cr3O10,0.017328049729164796
mp-764712,Li2VF4,0.070075699285713
mp-734875,H2Pb4C(Cl3O2)2,0.009967268823529274
mp-776627,Li3FeF6,0.0
mp-1079796,Ti3Pd,0.0
mp-765472,KTi6O12,0.0008292815131607513
mp-853189,V3(PO4)2,0.020304561250000568
mp-776250,Zr2N2O,0.09279784799999824
mp-29185,Te2O3F2,0.0
mp-585269,Li5Mo2P5O18,0.02077439300000084
mp-769614,Li4V3CrO8,0.006596653749999071
mp-764291,Li6Mn5SbO12,0.03677423583332917
mp-979261,TiPd,0.0
mp-677245,Na2Sr3As4,0.10831484222222264
mp-1008374,C,0.4360105000000001
mp-744075,Ca8La2Ti5Cr5O30,0.02013053492500028
mp-867815,AcGa3,0.0
mp-1028093,YMg14Zn,0.045594253124997985
mp-767644,LiV(PO4)2,0.08046039423611706
mp-1031332,KLiMg6O7,0.47126493983333
mp-761430,Li7Mn11(Si3O16)2,0.09188691826892016
mp-557711,K3Nb3(BO6)2,0.0
mp-16728,ScP,0.5577042699999994
mp-570188,ZrI3,0.0
mp-760994,NaSbO3,0.06567649333332337
mp-775307,Co3Ni(PO4)4,0.06511727502604181
mp-1094672,MgGa,0.08084907520833308
mp-20321,UGeRh,0.0
mp-1078419,Na3PSe4,0.0
mp-17501,Ba(ScTe2)2,0.002013760357144179
mp-567087,Ba2Mn(AsO4)2,0.0
mp-1097642,Ba2AgAu,1.33235594625
mp-763815,Co2H21I7(N2O)3,0.046284563064904034
mp-3667,P2S2O3,0.0
mp-667310,AlPO4,0.02164415657407748
mp-690570,Ni4(BiO2)9,0.16807193254031372
mp-650598,U(PbO2)3,0.0
mp-1094776,Mg2Cd,0.017633279166666904
mp-558065,In4(P2O7)3,0.005767986827960314
mp-20078,Pb2O3,0.009844174999991571
mp-570223,CsGeBr3,0.01285286800000085
mp-1097582,Y2MgPb,2.19145001125
mp-1008965,CdN,0.98007616131
mp-778654,Li4MnFe3(BO3)4,0.0026187013194460818
mp-558845,PH10C3N2O4F,0.1329929941666661
mp-19158,Mn3WO6,0.0
mp-1007823,GaBN2,0.3836329187499992
mp-25633,V(SiO3)2,0.06940895722222606
mp-989544,Cs2SeClF6,0.0
mp-35596,Fe2NiO4,0.0
mp-861971,PaGaCu2,0.0
mp-28099,SBr,0.0
mp-3980,LiSbF6,0.0
mp-555520,Sr2FeWO6,0.08137065400000232
mp-685819,Yb2TiO5,0.3436260101562496
mp-541250,VSeO4,0.003973310000006336
mp-557752,CsHSO4,0.0021582792857195447
mp-689934,Li2CrP2O7,0.032858364583333355
mp-505290,EuVO4,0.0
mp-645301,K2CoP2WO10,0.0
mp-961681,ZrGePt,0.6071731549999999
mp-762254,Li3V5O12,0.07289203874998851
mp-691150,Lu4V4O13,0.20846121928571826
mp-764879,V4(OF3)3,0.0019520099999867926
mp-975253,RbPr3,0.5077769800000005
mp-1095247,ScGeRh,0.005043806111110882
mp-23310,Yb4Bi3,0.0
mp-853162,MnV4NiO12,0.0018788183333260367
mp-778732,Li2MnF4,0.022127098571428583
mp-861245,LiAgF4,0.004513918333331368
mp-179,YZn,0.2765874349999997
mp-2260,FePt,0.0
mp-1028976,Te4MoW3S4,0.09002352479166742
mp-763622,Li2(CoO2)3,0.02830246113636825
mp-647533,Sb2O5,1.085024845714285
mp-1080552,SrHg3,0.0
mp-1096741,Y2GaAg,2.54282722625
mp-771363,MnPO4,0.02432679263889881
mp-545659,Ba2DyBiO6,0.0
mp-754238,Li2CuBiO4,0.10501916265624
mp-31498,BaPt,0.0
mp-761401,LiCrPO4,0.08191212059523956
mvc-14431,Y2Cu3(WO4)6,0.07451769442855928
mp-849541,Li2V2F7,0.0922612833333334
mp-1080629,CeSe2,0.5466660208796297
mp-850743,Li8MnFe7(BO3)8,0.0011056352430598435
mvc-10508,CaCu2(WO4)2,0.12872027057692126
mp-626210,Sr(H8O5)2,0.06414311518518456
mp-1098997,Mg14TiAlO16,0.12581368456249994
mp-755217,Cs2BaO2,0.05214755050000175
mp-551816,YBi2IO4,0.0
mp-5346,Lu(CuSi)2,0.0
mp-862679,TaZn2,0.0
mp-556641,Na2LiAlP2H2O9,0.003297076127452669
mp-861616,LiSc2Ir,0.0
mp-961709,ZrPtPb,0.6057784416666667
mp-37307,Na(WO3)2,0.053125520505062696
mp-867727,Li5(BiO3)4,0.021982789484122026
mp-29197,La3Br6N,0.0
mp-1096236,Ba2GaHg,1.4489973323611114
mp-769800,SrEu4O5,0.012320145000000338
mp-10392,Sr3CdPtO6,0.0
mp-14591,LiSbS2,0.013808729166666645
mp-20471,U4Si6Tc7,0.0
mp-555489,LiY6B3O14,0.01240345736110804
mp-764057,VO2F,0.04814161729166866
mp-562054,XeO3,0.9431648028124996
mp-25019,DyMnO3,0.022576652000001474
mp-1034229,NaHfMg14O15,0.12018611866935468
mp-1079584,U2InIr2,0.0
mp-625447,Pr(HO)3,0.0
mp-23131,Sr2BN2Cl,0.0
mp-12378,LaSnRh,0.0
mp-1016643,Mg6MoC,0.7659001742187503
mvc-13947,Ca2Sb3O8,0.18690816224359352
mp-542615,Bi3Se4,0.04922545738095163
mp-1021417,BaMg6Sn,0.1955049593749998
mp-764700,Li9Cr5O12,0.06569402230769494
mp-607021,Sr4Mn2Cu3(SO)4,0.041202762794116936
mvc-2263,Co9O13,0.2725336824431848
mp-771763,Mg2Mn3O8,0.03965570769230986
mp-1094388,MgTi,0.15216691916666658
mp-972384,V2Se2O11,0.0
mp-775503,Li4Ti4Mn4FeO18,0.07766386594288655
mp-763430,Li3MnF6,0.09333655599999524
mp-1094143,LiNi3P3O13,0.13250173362500206
mp-29269,NaSbF4,0.0
mp-607031,V2PbO6,0.02847763361109656
mp-569343,Tb4Mg3Co2,0.0
mp-651741,Cs2Re2Se5,0.0
mp-648832,Sm10Pd21,0.0001607935483844969
mp-557916,V3(Bi3O8)2,0.0
mvc-8078,Mg3Fe4(MoO4)6,0.06781435790540337
mp-24339,Sm5Sb3H,0.02267879750000024
mp-948,ZnTe,0.28752664500000025
mp-973634,Ho(AlC)3,0.0
mp-22666,NdCu3(RuO3)4,0.03775504808333442
mvc-6517,Mg(CuO2)2,0.09090901321428467
mp-14786,Ba(Cu2As)4,0.0
mp-19839,LaGa2,0.0
mp-1098724,Mg30MnZnO32,0.00762346445312545
mp-629082,Ba3MoN4,0.008536712829860349
mp-21879,Ba2CePtO6,0.0
mp-21742,Ba5AlIr2O11,0.0
mp-570438,Yb8Tl3,0.0
mp-540227,Li2Mo(PO4)2,0.0590455545192059
mp-510264,KY(WO4)2,0.0
mp-768870,Ca(ClO3)2,0.0
mp-14928,Sc2MnSe4,0.0
mvc-5742,Ca(AgO2)2,0.18105045250000007
mp-540075,Li4MoP2O9,0.04907272230471449
mp-777304,Li2V3CoO8,0.07961963458333443
mp-557043,Ba2Nd2Ti2Cu2O11,0.02016881868420839
mp-1028246,Mg14AlGa,0.02645425771634624
mp-1022726,Ba2CuH6,0.026872438111746003
mp-649091,MoPNCl6O,0.14343955566885658
mvc-10288,ZnBi3P3O13,0.1468812890000013
mp-19721,GdNbO4,0.0
mp-972892,MgHg5,0.0545957033333333
mp-29834,Cs4SiSe4,0.0
mvc-16381,CaCu(Si2O5)2,0.029580885312499024
mp-505364,CdPH6NO5,0.005638902670066059
mp-1035249,Mg14CuSiO16,0.1909847186718752
mp-18109,RbDy(SO4)2,0.0
mp-1034256,RbMg14WO16,0.2618320158593752
mp-768319,LiNi2(PO4)2,0.11316975370190716
mp-775618,Li2TiV5O12,0.08876342295831563
mp-675941,Li7IN2,0.0
mp-540345,Cr2(PO4)3,0.05655259378676725
mvc-16625,Mg(TiS2)2,0.17061147885714426
mp-1029640,Ba3OsN3,0.0
mp-625886,Ta2H4O7,0.14544933923076894
mp-1097463,LiZnCu2,1.420844895
mp-780183,Fe2OF3,0.08861508500001136
mvc-3074,Te3Mo5O18,0.10988001346839392
mp-771432,V4CrCoO12,0.06776656624998623
mp-778375,La2Nb2N2O5,0.04670438470611238
mp-572512,Cs2LaTa6(Br5O)3,0.0
mp-1096967,FeF3,0.0049779274999997005
mvc-2936,CaNiO2,0.15807582374999996
mp-22680,DyInCu2,0.021632640277776
mp-571020,CsMgH3,0.0
mp-1022142,CsMg6Cu,0.29565218687499994
mp-770691,Li3AlFeO5,0.06916143449999979
mp-540995,Rb5Nb3OF18,0.0
mp-756522,CuTe(PO4)2,0.043337439166664105
mp-639347,BaEuFe2O5,0.1857870233333383
mp-775527,CaV5H19O23,0.031664947838541124
mp-610972,MnGePd,0.03969725499999832
mp-850945,Li47(NiO4)8,0.0362582673275913
mp-773333,CrBiO4,0.05849698461806785
mp-1022461,NaMg6Zr,0.1516928693749997
mvc-5110,Ca2MoO5,0.2246566662499996
mp-975064,HoReB4,0.0
mp-654129,GaAg(PSe3)2,0.0
mp-9868,KCu3S2,0.0014713944444446625
mp-743867,TiMnO3,0.1953644850000078
mp-24839,BaYCo2O5,0.06659631333333671
mp-1401,ZrZn2,0.0
mp-554649,Na3NiF6,0.0
mp-769951,Ba2MnO4,0.019222729761892758
mp-541349,Ho2Au5F21,0.0
mp-776344,V2O5,0.011421412142855305
mp-17806,Ta2V4Si5,0.17932085960605804
mp-616141,Cs5GeAs3,0.0
mp-1057545,CeCd,0.0966144700000009
mp-28546,Eu4Cl6O,0.0
mp-766142,LiFe5O5F,0.04686267041666703
mp-627119,VHO3,0.06978824075002342
mp-764183,Li5MnCr3O8,0.05692710240196064
mp-1013548,Ca3SbN,0.0
mp-961659,TiSiPd,0.08237970932367222
mp-851247,Li4V3P8O29,0.047610120075756164
mp-1096319,Zr2TcAg,3.2189657659375
mp-763099,Li2VO2F,0.10322947666666417
mp-608468,ZnS,0.05090356250000029
mvc-7449,TaZnBiO5,0.1173830901562507
mp-30847,TiSnPt,0.0
mp-29592,RePCl9,0.016209514909096168
mp-24297,SrP2(HO)4,0.013351326662252028
mp-625150,ScHO2,0.0
mp-779107,Ti17(NO4)6,0.030072509204684295
mp-981933,NaPd2Pb,0.0148865848579538
mp-972327,Zr2CoOs,0.0
mp-30453,DyBiPt,0.0
mvc-282,Sr2YTaCu2O7,0.2923546903846148
mp-1078698,ZrCuGeAs,0.0
mp-757798,Bi12PO20,0.021180919469697912
mp-1037390,Mg30VCuO32,0.03477174171874964
mp-675372,CaZr4O9,0.0962800676785811
mp-973165,Lu3U,0.39669118625
mp-15558,Li3GaF6,0.0
mp-560956,Cs2KCrF6,0.0
mp-613314,CoAsS,0.29129165749999864
mp-975134,KRhO3,0.050198930999999725
mp-973286,LiLu2Pd,0.02202358000000082
mp-568791,Ca3SiBr2,0.18281109125000009
mp-19705,SrV4O9,0.01944004415179812
mp-775651,Li2Mn3CoO8,0.012545884725761349
mp-8614,K3NdSi2O7,0.0
mp-30054,CS2N,0.2549726101639287
mp-27265,AuClO,0.0
mp-504506,RbIn(MoO4)2,0.0
mp-642653,BaH2O3,0.3174838751041689
mp-5039,KPO3,0.0
mp-29847,Tb4BBr6,0.0
mp-30598,SrCuSn2,0.0
mp-674352,TaAg7S6,0.04676631678571752
mp-765076,LiMnOF2,0.08031449475001029
mp-752922,Li8HfO6,0.002759913666667835
mp-9552,LaCo5P3,0.0
mp-3299,Sr(FeP)2,0.0
mp-10520,LiNdTiO4,0.023320482857140945
mp-1013544,Ca3SbAs,0.12873347012745162
mp-6913,YN,0.08809957000000067
mvc-6702,Zn(SnO2)2,0.2396973839285712
mp-979465,SmCd3,0.0
mp-505305,La3MoO7,0.0
mp-6907,SrSi,0.3581544074999994
mp-1078012,Cr3Te4,0.012113868571429265
mp-721059,H8AuC2S2N4ClO4,0.4034957630311693
mp-1013707,Ba3PN,1.0336711263749985
mp-3197,TbAlPd,0.00879409972222156
mp-779222,Li3Co2(SiO4)2,0.07760555183330188
mp-558573,Y2O3,0.047246894000000594
mp-1093593,Y2ZnCu,2.5583597793750004
mvc-9145,CaTiV(PO4)3,0.01968686006946108
mp-641917,ZnSiO3,0.057211651083335376
mp-29306,B5(H2N)2,0.496282700666665
mp-22488,Co2C,0.11008170750000447
mp-975184,NdMgTl2,0.0
mp-555481,Ba6Er2Ga4O15,0.0
mp-1022087,LaMg6Co,0.19329755873579435
mp-1386,HoPb3,0.0
mp-22622,YbCoB4,0.0
mvc-14250,Al5(FeO4)3,0.14775217912500072
mp-20694,K2Pb2O3,0.0
mp-7169,TmPPt,0.0
mp-29070,La5C2Br9,0.0
mp-771505,Li4CrCo5O12,0.0800671774242474
mp-31517,Ta2CoO6,0.0
mp-697120,BH3NF4,0.04747317107587179
mp-33297,Mg2TiO4,0.020676106071427117
mp-40575,LiNi2P4H3O14,0.0
mp-23688,RbH3(CO2)2,0.10077690062499922
mp-1024940,DyInCo4,0.04416795924242845
mp-252,BeTe,0.0
mp-777084,LiV2OF5,0.05662891277778038
mp-1078490,Sc(NF2)3,1.1644027754290018
mp-1074388,Mg4Si3,0.25750117928571425
mp-769506,Na2FePCO7,0.008456465416653458
mp-556896,Ba4AgAuO6,0.0
mp-760957,NaCuP2O7,0.017290099090921274
mp-569005,MoCl4,0.004645331388888785
mp-3992,PrSF,0.0
mp-559463,RbMgAs(H6O5)2,0.0
mp-13502,TmCoC2,0.0
mp-691163,LiFe5O8,0.3525743739285714
mp-1076048,Na2V2O5,0.07100576647221413
mp-1025269,Ti2CoS4,0.004355808673468076
mp-984335,PmErIn2,0.0
mp-30291,Tb4Se3N2,0.0
mp-571412,RbNa5(WN3)2,0.0
mp-778868,Fe10O11F9,0.09208364556249472
mp-865098,NaLaAu2,0.0
mp-781948,Na2Ti2O5,0.01479824238889016
mp-691028,Sr6La14Mg7Ti13O60,0.025144980625004358
mp-1030513,MoWSe3S,0.011055092500000365
mp-622211,Ba2EuCu3O7,0.017989119567308975
mp-675690,Ba2PtAu,0.010740611666665956
mvc-2158,Ti2ZnN2,1.0553106549999995
mp-861145,Sm27Y5O48,0.0004488900390615669
mp-756810,Sr3Ta4(O6F)2,0.015957148333336946
mp-25744,CaCrH2O5,0.018187549444443896
mp-29955,Hg3(SeI)2,0.0
mp-1096167,LiScIn2,1.8311967845833328
mp-755404,Gd3SbO7,0.0
mp-1079307,Dy3(CoGe2)2,0.006033727777778886
mp-24784,Mg16Si8HO32,0.10080602704175501
mp-765409,LiCoPO4,0.08289602803571583
mp-18005,NaYTiO4,0.02045927357142574
mvc-9971,CaLaCr2O6,0.02671691300000134
mp-758415,LiCuPO4,0.06523767250001368
mp-1073716,MgSi,0.2041550238888888
mvc-5949,VZn2WO6,0.10679254175000176
mp-867185,Pu3O2,0.19341070837499968
mp-1026680,NaMg14Cr,0.11117168343750072
mp-1033144,Mg6AlCuO8,0.16369956328125035
mp-862660,LiEr2Rh,0.004382877500000326
mp-555166,BaAg2SnS4,0.0
mp-510719,SrGaH4,0.10613394796000007
mp-1025426,CeI3,0.0
mp-776511,LiCoNiO4,0.0
mp-1093953,GaCuPd2,2.029588718125
mp-5628,K(RuO2)4,0.0
mp-864635,Ag2Cl3,0.0
mp-774736,LiCuS,0.0009006560416668918
mp-569313,Mg3Si8Ir3,0.0
mp-542154,Mo3Pd2N,0.0
mp-771501,Na2MnBAsO7,0.055051026868489394
mp-17534,Ho2Ge5Rh3,0.0
mp-8810,SrZn2(PO4)2,0.0
mp-10179,LiMgSbPd,0.06650484166666626
mp-555329,CSe2S2N2(OF)3,0.21817145349442413
mp-706676,KPH3NO3,0.07143178458333478
mvc-9081,Ti13Al4Si2(SbO14)2,0.3542438171428621
mp-1070256,Mn2ZnAs2,0.3039475680000008
mp-1078696,PbS,0.08290959875000059
mp-675843,CsCrI2,0.3599928020833336
mp-975359,Rb(FeAs)2,0.0
mp-11466,NaHg2,0.0
mp-1074528,Mg4Si3,0.2025567076587316
mp-862981,Er2CdIn,0.0
mp-28294,Sb11F43,0.0
mp-976920,Ni9S8,0.0
mp-569427,K4Sn(TeSe)2,0.0
mp-505541,V5As3,0.04613134625000015
mp-566664,K10MnMo7O27,0.006385770777781907
mp-743603,Li3Ti3Fe(PO4)6,0.028635136756757436
mp-773900,BaCa2I6,0.07527033680555563
mp-1094589,LiMg,0.027330861666666758
mp-863901,Li2V(SiO3)2,0.06947847538170038
mp-17395,TmCu(BO2)5,0.012514327671571124
mp-20513,U3MnSb5,0.05679270694444316
mp-21119,CeNiSn,0.0
mp-570005,SbBr3,0.0
mp-763671,Li2Ti2V3O10,0.06177871573529714
mp-1026909,Mo3W(SeS)4,0.03042657749999922
mp-1029282,TeMoWSeS2,0.09264756583333343
mp-770293,Li5Fe2P2(CO7)2,0.029177481199997857
mp-1021275,LiMg6Cr,0.15968586874999954
mp-1039259,Ce2Mg,0.0769798944444462
mp-1095500,TaFe2,0.0
mp-5960,Ca3UO6,0.037687871499993975
mvc-10720,Mg(BiO2)4,0.12594037192307986
mp-772755,Li3CuPCO7,0.05241591673076762
mp-558102,KLiSi2O5,0.0
mp-579529,Na3MoH6(CO2)6,0.10594063776785934
mvc-7709,Ca2Ti3O8,0.09443436769230652
mp-999557,Mn2SnRu,0.1669332286363634
mp-1096475,Ba2TlPb,1.3893455218750002
mp-1068167,Sr2Ge2Pb,0.03897480800000031
mp-849460,Mn2OF3,0.06499764145833797
mp-20830,In2Se3,0.5220583423333327
mp-778572,Li2VFeP2(O4F)2,0.00024373812492761715
mp-1096245,MnBeRu2,3.4832935887500005
mp-568803,Mg(B6C)2,0.0
mp-776313,Ti2N2O,0.05743468451199973
mp-9172,Li4TiO4,0.0
mp-694780,LiFe(PO3)4,0.034876980416667536
mvc-16752,Ti2ZnO4,0.3042820250000036
mp-11286,CaHg,0.0
mvc-1422,Ba2Ni3O7,0.4037110016666512
mp-555532,CsBC3NOF9,0.4761046977809373
mp-686487,Th2(Mo3S4)5,0.011063036891892251
mp-1099868,KNa3V2(MoO5)2,0.07483737083333786
mp-864904,HoCdAg2,0.0
mp-780873,Li2Cr3CuO8,0.06708322738094541
mp-1093800,YZn2Pt,2.460720303043478
mp-555021,TePbO3,0.0027161143333414017
mp-776283,Li4NbCo3O8,0.0742512099999999
mp-771442,Li5Fe2Ni3O10,0.016137709375000142
mp-1093965,Na2TlAs,1.1843258832142858
mvc-8003,Mn3Zn2O8,0.002246715000007171
mp-1028164,CaMg14Zr,0.06239316531249984
mp-1026801,LiMg14B,0.19361201500000025
mp-775172,Li5Sc2Fe3(SiO3)10,0.003446935300001286
mp-2305,MoC,0.001995046875000739
mp-976181,NaBH4,0.011242978333336321
mp-1072244,EuS,0.16172595166666606
mp-1076759,LaSmCo2O5,0.07637441055555527
mp-561838,LuCoO3,0.022457854000007767
mp-557785,MnH21C7S3N,0.1158177796363633
mp-652626,K4Mn3F12,0.00014315842105183665
mp-560786,Nd10S19,0.0
mp-1431,MnSi,0.0
mp-853212,Li4Mn3Cu3(WO8)2,0.06575592399551589
mp-30212,La5Bi3Br,0.0
mp-625475,H2SO4,0.002668894999997562
mp-29615,Ca(MnBi)2,0.3653290919999996
mp-779428,Sr4HfO6,0.0651481047727227
mp-743935,Zn2H10N12O5,0.4169437909349432
mp-6999,ScPS4,0.0
mp-18737,Nd2NiO4,0.061525357499982114
mvc-10567,Ba2Ca3Ti4Tl2O12,0.2877827440760843
mp-24656,YH3(SO4)3,0.0
mp-771279,Li4TiCrO6,0.018562119791684317
mp-32492,LiV(PO3)4,0.0
mp-17734,SrHo2CuO5,0.06599452472221934
mp-555606,Na10Be4Si4O17,0.002691638071417479
mp-1075674,Mg5Si9,0.2149859045634908
mp-25179,Na2W2O7,0.0
mp-571283,GdRh5,0.07602105666666502
mp-19643,Rb2CrO4,0.0
mp-27250,CsTcO4,0.0
mp-704981,Mn5Ge2,0.09562566184523824
mp-1072953,TaV2,0.00036271166666779214
mp-27228,Tl6Si2O7,0.0
mp-754696,PrTiO3,0.07551523712500874
mp-763836,Li3MnP2HO8,0.04017553666666096
mp-608103,Na3VF6,0.0011825160000000778
mp-652494,Cs4Re6S13,0.0
mp-667349,Sr3U11O36,0.0
mp-1032150,Mg6CuNiO8,0.08414332874999975
mp-560146,Ba17Y16Zn8Pt4O57,0.0
mp-607004,CeAsSe,0.0
mp-1002184,TcB,1.104384883636362
mp-1099902,La7SmMnFe7O20,0.07010166366319481
mp-556676,Na3Al2(AsO4)3,0.0
mp-11675,NbTe2,0.0
mp-675069,LiNbO3,0.00685830799999998
mp-2510,ZrHg,0.0
mp-30482,Ca3Tl,0.055875904999999726
mp-763978,Li5Ti2V3O10,0.012282604749995762
mp-21113,Y(FeGe)2,0.0
mp-542488,MgCo,0.019006883124998097
mp-20879,CaHgPb,0.09875216708333356
mp-19514,Sr2CrO4,0.0
mp-862369,Sc2IrRu,0.0
mp-1036765,Mg30NbVO32,0.05812312757812599
mp-1020645,Na8NO3,0.16032642458333246
mp-32526,CaV2O6,0.0
mp-2117,TbN,0.0
mp-17953,MgNb2O6,0.0
mp-754468,NaCuO2,0.026461824374996112
mp-766772,LiFePO4,0.08622851333333338
mp-617165,MnC4NO5,0.702090804556363
mp-766754,Li2NiP2O7,0.06898031041665842