mpid,formula,e_hull
mp-983594,Al3Ga,0.040873454999999836
mp-1093787,Y2AgAu,2.40575159
mp-32813,Ti9O10,0.20144067526317144
mvc-7855,ZnBiWO5,0.15080253
mp-4320,CuTeO3,0.045104036249997925
mvc-8852,MgSnBiO5,0.11536983320312455
mp-1159,Zr2Fe,0.01727572733332572
mp-1027813,HfMg14Fe,0.2053692039843753
mp-769516,Na2NiPCO7,0.04385629984375417
mvc-1325,Ba2AlW3O7,0.8194618262980748
mvc-13224,YMn2O5,0.0
mp-19386,Sr3V2O8,0.0
mp-989556,Cs2NaPbF6,0.0
mp-570530,Cs(BCl)6,0.0
mp-975920,PrSmTl2,0.003972456250000089
mp-11204,Tm6FeSb2,0.0
mp-3768,KN3O4,0.16864949194957912
mp-767848,Li3Cr4(PO4)6,0.07079188226351096
mp-763545,LiVPO5,0.08753997500001097
mvc-240,ZnSnO2,0.2274292043749835
mp-2233,Th2Ag,0.01657602833333449
mp-779978,V4O5F7,0.007105060000017538
mp-1016620,Mg6CrBi,0.1646778937500004
mp-651847,GdGaGe2O7,0.0
mp-764488,LiMnV(P2O7)2,0.009440293571414848
mp-773165,Li4Co5CuO12,0.07149287568182494
mp-862795,CaLaAg2,0.0
mp-22165,Ce(CoB)4,0.002935867388887736
mp-557494,AgBTe4C2(O3F10)2,0.16033523432709984
mp-982615,Pm2InAg,0.0
mp-30906,Sr2Al6O11,0.004676789736857145
mp-1080774,Ga2O3,0.029478126000001662
mvc-16304,CaTiF5,0.015515412142857343
mp-11401,ScGa2Ni,0.0
mp-557693,CsZnPO4,0.0
mp-764973,LiVP2O7,0.09295351727272384
mp-1095158,HfGaCo,0.0
mp-10931,HoSF,0.0
mp-707129,Ca3B6(H4O5)4,0.010462329722220607
mp-560357,MnClO3,0.4397165119166653
mp-765424,Li2Co3SnO8,0.04724763803570653
mp-1023265,CaMg6Sn,0.1249809446875001
mp-685291,AlPO4,0.2791329490277805
mp-504630,InTeCl,0.0
mp-1098886,Mg30CoSnO32,0.06330952554687475
mp-18297,Ba3(GaN2)2,0.006618578055555879
mp-1027286,TeMoWSeS2,0.07126160000000059
mp-1036879,Mg30CrNiO32,0.029211132265625217
mp-17334,Sc2Cr4Si5,0.0
mp-1030961,Te2Mo3W(SeS2)2,0.05342544999999976
mvc-16089,ZnCu2SnSe4,0.0021432012499982282
mp-625087,U(HO2)2,0.1283694971428586
mp-24728,VH2,0.0
mp-1066821,SN,0.9146463759675001
mp-35208,NdOF,0.05538172000000152
mp-1033438,SrHfMg6O8,0.4078886635937513
mp-754964,HfZrO4,0.048827301249998456
mvc-3009,SrCaNi(PO4)2,0.022373250961530644
mp-1023496,Mg15Mo,0.10971007187499993
mp-560133,TlPb8Br9O4,0.0
mp-9632,CsReF6,0.0
mvc-16004,Ti2Zn3O7,0.09147252847222108
mp-1021377,Mg6SnBi,0.08478811875000014
mp-998929,K2O,0.060275723333332636
mp-625159,H3ClO5,0.05610976500000042
mp-1073015,Mg2Si3,0.2286751411111103
mp-722977,Na2Si(H3O2)6,0.013966402878789808
mp-556123,Sr2Sc2B4O11,0.006323048092102822
mp-777714,Na4CoO4,0.06936560500000953
mp-772771,La4(B2O5)3,0.022935274919992917
mp-13964,HfGeTe,0.0
mp-616731,KMnF4,1.2064583334137069e-05
mp-1027682,TeMo2Se3,0.02201875833333311
mp-1076342,Ba7SrCoCu7O24,0.07979071871875032
mp-565249,Mn2Ni6Te3PbO18,0.0
mvc-11623,Ca2MnWO6,0.0
mp-585964,SbS3N2Cl7,0.06910659176844725
mp-570921,CsLu(NbCl3)6,0.0
mp-981356,Zr(FeGe)6,0.0
mp-764919,Co3(O2F)2,0.09697206666666514
mp-677231,CaNd2Ti2ZnO9,0.03543509724999972
mp-1038611,BaMg30CdO32,0.09259004570312523
mp-24977,TiFe2O5,0.021682292187499286
mp-574663,CdI2,0.006525921888889119
mp-767358,MnV3Sb2(PO4)6,0.060901786319441875
mp-1028318,LaMg14V,0.15534569171875034
mp-779522,Ho2P4O13,0.03478098736843371
mp-20327,TiP2,0.0
mp-645326,Al3Bi5I12,0.02440632699999989
mp-1096202,Y2PdPb,2.303511335937501
mp-3739,NdCuSe2,0.0
mvc-786,MgMn4O6,0.09044418045453816
mvc-6307,Mg(SbO2)2,0.3376524117857125
mp-755752,Rb2Be2O3,0.0
mp-782663,Co3OF5,0.05668744930555648
mp-1095215,K2Mg(CO3)2,0.0016388836363603332
mp-1008483,CdN,0.94356181631
mp-672352,Al(ICl2)3,0.0
mvc-5048,TaZn2WO6,0.15354312087500155
mp-779435,Ga3NO3,0.06886271285714153
mp-3985,Tm(MnGe)2,0.0
mp-4612,TiCo2Ge,0.0
mp-559383,RbLuP2O7,0.0
mp-686702,Ca4Al11Si13(AgO16)3,0.11580819518987172
mp-530027,Si6O13,0.3552366182236799
mp-28476,SrBiSe3,0.0054229695156244855
mp-850140,NaLi3Ti2Fe2(PO4)6,0.01119235072368241
mp-770198,Li5Mn2(PO4)3,0.0903160084090988
mp-30185,BaSi23,0.0849390447916667
mp-867918,ErPaRu2,0.0
mp-738,Sb2Au,0.0
mp-781078,Li3V2P4(HO8)2,0.019689704629652027
mp-31847,Li6Fe9(PO4)8,0.04449850236363151
mp-16124,BaPr2MnS5,0.0
mp-850409,Fe2OF3,0.05566232533334059
mp-1026696,Mg14CrSi,0.12911448843750015
mp-4729,Er(MnSi)2,0.0
mp-1096331,Y2InHg,2.371038865
mp-1028120,CaMg14C,0.3144644423437497
mp-1064077,FeH3,0.19922569318999986
mp-764647,Na8TiO6,0.0697117372222209
mp-706679,NaH2SO4,0.16677676582201514
mp-773535,LiVFeO4,0.015457887440470941
mp-641576,Gd3CuSiSe7,0.0
mp-540111,FePO4,0.0
mp-6615,C2Se(SN)2,0.2919078204902785
mp-1098890,Mg30TiCoO32,0.04966027808593765
mp-864970,MnSiTc2,0.0
mp-1027962,Mg14ZnSi,0.04898167417499999
mp-21057,La(GePt)2,0.10351807600000028
mp-556132,SiO2,0.19131988874999986
mp-29243,Ba3SnO,0.0
mp-867167,LiCa2Tl,0.0
mp-989565,Rb2TlGaF6,0.0
mp-6986,Ta,0.2456932700000003
mp-568891,MnSbRh,0.3358347608333343
mp-10550,SrMg2N2,0.0
mp-850160,Li7(CoO3)2,0.10884075566667127
mp-740765,NaGa(H2N)4,0.3849886116071426
mp-554737,CsAu2F7,0.0
mp-672705,YbS2,0.0
mp-862905,PmGaAu2,0.0013174999999989725
mp-865120,NaPaO3,0.0
mp-1038715,CeMg,0.022725211666665857
mp-1030618,Mg3ZrO4,0.3563280871249992
mp-861871,SeI2,0.0654248388020835
mp-757150,Li5BiS4,0.07494316949999735
mp-771561,Na3CrSiBO7,0.05199328639422962
mp-29332,Pt(PbO2)2,0.0030300203571442808
mp-767631,Li3VF6,0.04479382233332707
mp-558340,Nd5As2ClO10,0.0
mp-763860,Mn2OF3,0.061617741041670726
mp-772052,CdSeO4,0.02059309166666257
mp-1094276,ZrSn,0.3030353341666663
mp-1013552,Sr3P2,0.4032105035000004
mp-1096381,AgSnPd2,1.9105835206250004
mp-5704,Tl3AsS4,0.0
mp-984102,Fe3H,0.6071897437499993
mp-19117,Li4MoO5,0.0
mp-976799,Ni3Bi,0.17851064874999967
mp-22152,NaFeAs,0.0
mp-10901,Al3Pd2,0.0
mp-570308,Eu(NiSb)2,0.0
mp-697969,Rb2Cu3H2S3O14,0.2480399013541703
mp-20305,InAs,0.0
mp-685078,K11B62,0.16229896593607318
mp-625861,H7NO6,0.041138990178571255
mvc-87,Ca2Nb2SbO8,0.1751899978205138
mp-13240,ScInCu4,0.0
mp-1095403,BaTbCuTe3,0.0
mp-1012435,PbS,0.056755717500000635
mp-20991,BaPbO3,0.0028881610000013325
mp-27123,ErSeF,0.025448741666665768
mp-31080,YAlSi,0.0
mp-780402,Sc2Ti2O7,0.05644586738636015
mp-865930,TiZnCu2,0.0
mp-779545,Na3CuO2,0.040352031666664345
mp-582929,K8In11,0.0
mp-1093715,TiBeAu2,2.0925189802631583
mp-761979,LiCoPO4,0.09026826625000164
mp-39207,Ca3La5Mn7NiO24,0.002963793499962009
mp-31386,HoGaPd,0.0
mp-24228,Na2CuH6C2O9,0.021423492875000786
mp-773058,Ba6Ti7(Sb3O14)3,0.042991750466306655
mp-8226,ThNF,0.0
mp-1038355,HfMg30SbO32,0.17586054980468813
mvc-3466,TiAlO3,0.2607403296666693
mp-38972,Ba3Re2O9,0.0
mp-771491,Na3VSiBO7,0.026406934158661244
mp-851047,LiFe2OF3,0.056255212142857225
mp-981251,TmTa3,0.3512885975
mp-555838,SnPO3F,0.0
mp-767973,Li2Fe(SiO3)2,0.05130895159090088
mp-782105,Na3SbH30S3N10,0.0
mp-1093625,Ga2CuPd,1.5153099561250003
mp-555296,YbTaO4,0.004172156666683691
mp-505628,Cr3IrN,0.0062221619999984785
mp-34472,Na(Nd2Se3)4,0.003156642976190227
mvc-10051,Zn(CoO2)2,0.10165377812969913
mp-18147,LiGaSiO4,0.0
mp-761686,Na2BiO3,0.0
mp-23280,AsCl3,0.0
mp-774410,Li8Mn3Fe5(BO3)8,0.00506715135416691
mp-1097294,LiBe2Au,1.745317453863636
mp-1096238,Y2OsPd,2.836992455312501
mvc-5986,Mg3Cu3(AsO4)4,0.02400917182692464
mp-2868,Th11(Ru2C3)6,0.0
mp-540804,RbBi3S5,0.12850780916666338
mp-7593,RbLiF2,0.00598134500000036
mp-1033201,Mg6BiCO8,0.6548965368749995
mp-13494,Nd3Fe29,0.03734839523437472
mp-31706,Li3Cr2(PO4)3,0.0
mp-622542,Rb2CrF5,0.0
mp-1079066,Ta2AlC,0.5001276287500005
mp-979948,SmNiB4,0.0
mp-768015,LiMnCoO4,0.025943605952381432
mp-676765,Na21In5O15,0.06893573876524163
mp-582245,Ce4Al23Ni6,0.0
mp-696315,NaHNO2,0.0991788127643991
mp-695389,Ba18Pr9Sn4Sb5O54,0.03860273247222423
mp-1023478,HfMg15,0.0464635746875004
mp-767657,Li4Ti2Nb3Co3O16,0.08282803818453566
mp-560441,BaZn2Si2O7,0.0
mp-769779,Li2Ni3BiO8,0.020580740535714348
mp-866538,Ca6Sn5S16,0.4209937849074059
mp-754004,TmHO2,0.0029090710937493824
mp-762050,Li4Cu7(PO4)6,0.09556458536584156
mp-696127,Li10Ge(PSe6)2,0.011386419800000436
mp-1074108,Mg4Si7,0.2244844132828301
mp-558516,TmSeClO3,0.0
mp-3538,Hg3TeO6,0.0
mp-770274,NiP4,0.07530494688095324
mp-1099034,NaMn2P2O9,0.0
mp-680113,CdI2,0.001650967494949418
mp-556388,Cs2CoSiO4,0.0004082987499982593
mp-1030924,NaLiMg6O7,0.3348166189999997
mp-776097,HfO2,0.02799397194444176
mp-745098,CoMo8H36C8(NO16)2,0.2006341671896568
mp-604773,Mo8P9H56N12ClO56,0.04133076641882028
mp-7885,AlAgS2,0.07017308874999982
mp-1096565,Sc2CuRh,2.5469785725000005
mp-7903,Cs2ZrF6,0.0
mp-764947,RbV4O10,0.031208445000011405
mp-558753,BiB2O4F,0.0
mp-21839,Ba4Ge20Au3,0.0
mp-771758,Mn3Fe2Sb3O16,0.09913994373264234
mp-763846,LiMnPH2O5,0.0426766307499955
mp-762448,Li6Fe3Sb(PO4)6,0.07683326297498994
mp-30083,TlBi,0.12211436916666595
mp-571576,LaTe2,0.0
mp-560642,Na3SbP2O9,0.0
mvc-14928,CrP2O7,0.09048929781249272
mp-554110,CSNO3,0.2548103223255556
mp-1751,ThSb,0.0
mp-776214,Hf2N2O,0.0056870119999956606
mp-30944,Ce4Ga5Br2,0.0
mp-1022517,RbMg6Zr,0.2510450237500001
mp-23229,FeCl2,0.0
mp-1098861,Mg30ZnCuO32,0.015158899609375888
mp-913,CdP2,0.0
mp-853170,Li2MnO2F,0.09592694499999599
mp-781761,Li2FeF4,0.061798543571428326
mp-996984,AgClO2,0.16193214250000088
mp-7127,Ba2YbTaO6,0.0
mp-1073829,MgSi,0.1891615980555552
mp-975322,RbFeO3,0.2258521501666673
mp-572442,Cs3Nd(PS4)2,0.0
mp-695984,BaRe2H2O9,0.0
mp-779698,ZnTe2O5,0.027678768671917098
mp-1072707,CaGe2,0.007034551666666999
mp-30808,TbNi5,0.0
mp-781672,LiFeH8(SO6)2,0.033167801354167636
mp-761651,Li2Cr(CoO3)2,0.08528176901515305
mvc-4340,Al2V3(SiO4)3,0.0849586567499987
mp-1028570,Te2MoW3(Se2S)2,0.0632507516666676
mp-973874,LiLa2Al,0.020865063125000027
mp-1099077,Mg14GaNi,0.06210043718750001
mp-10651,YbSi,0.0
mp-28355,Na4Ge2Se5,0.0
mp-557667,Ge3Pb5O11,0.0019911764912281527
mp-27048,LiCuPO4,0.07420491392858519
mp-626486,H4SO5,0.054531854249998624
mp-1031881,Mg6TiNiO8,0.26608410421874673
mp-675821,Y3TaO7,0.1205716859090824
mp-39167,CaScAlSiO6,0.0012942499791641635
mp-1079680,CaFeO2,0.035625048749999166
mp-505391,Li6CoCl8,0.008795456000000978
mp-19676,K9Ni2O7,0.0
mp-864715,HfInCo2,0.0
mp-1094612,Mg5Ga,0.04381523666666709
mp-17288,Li2ZnSiO4,0.0
mp-506,MgPd,0.0
mp-5354,Er3(Si3Ru)4,0.0
mvc-10530,MgTi2Be3(SiO4)3,0.20174469352891225
mp-1620,Si2W,0.0
mp-767427,LiFe2(BO3)2,0.05700868721593366
mp-13349,KUCuS3,0.0
mp-14558,Ba2Mg(PO4)2,0.0
mp-1037934,CaMg30CdO32,0.028166704218750564
mp-1078235,TmInPd,0.0
mp-30415,PrAu2,0.0
mp-505712,CsHoZnSe3,0.0
mp-1097053,Li2Zr2O5,0.16473856916666565
mp-997054,CuBiO2,0.007731599062493544
mp-19332,BaGd2NiO5,0.0
mp-1077197,CeScSb,0.01976717083333224
mp-763090,Co2O3F,0.09603604048611024
mp-1037229,YMg30CO32,0.1596898382519525
mp-685251,Nd2(Mo3Se4)5,0.04629562405405442
mp-1084850,Ni(ClO3)2,0.7042705786111103
mp-16740,TiGePd,0.025761914444450973
mp-745166,Sr2Fe2H2OF10,0.0
mp-22957,SrClF,0.0
mp-2228,ErMg,0.0
mp-23350,Rb2PtCl6,0.0
mp-762906,Li2Fe3CoO8,0.046403303147319434
mp-1026621,Mg14SnSb,0.04325909968750019
mp-569827,HgH8C2Br3N,0.027764135166667536
mp-699378,Fe2NiO4,0.1377221634285668
mp-601401,KCSN,0.044252893749998634
mp-997552,Fe5O7F3,0.0976947462499993
mp-704237,Fe(PO3)4,0.053673688688723686
mp-579811,Rb2U(MoO5)2,0.0
mp-25225,Ba2(CuO2)3,0.06003475454545538
mp-561012,Sr3Cu3(PO4)4,0.013761142307696872
mp-19026,Na4FeO3,0.0
mp-764275,V2O3F2,0.057332403333345994
mp-1024054,Fe2SiS4,0.2271655071428577
mp-862681,ErMg3,0.0
mp-695096,La16Mg2Ga14O47,0.06539964378392504
mp-566425,Cu3NiH6(ClO3)2,0.02187548319444588
mp-629046,LaMnO3,0.0
mp-30570,CrGaFe2,0.08345425867187561
mp-17709,Na2ZnSiO4,0.004344695000000343
mp-780111,Li2Mn3(BO3)3,0.05578554259802005
mp-651786,Ca5MnSi9(Pb3O11)3,0.0
mp-30286,Hg2SeO3,0.0064197820833316035
mp-1073940,Mg6Si5,0.20392400333333333
mp-772357,Na2VCSO7,0.048128594937495
mp-1093851,ZrBe2Pt,3.3817644286574065
mp-4842,Al2ZnS4,0.0
mp-764655,Li6MnV3(PO4)6,0.06064880050001342
mp-1030989,LiLaMg6O8,0.2167777553125001
mp-1026704,Mg14CdSi,0.044979130062500206
mp-11321,Y3TaO7,0.0
mp-1025500,ZnCu2SnS4,0.0031956437500006984
mp-22067,Ba2CuGe2O7,0.02278931666665951
mp-705033,Cr2AsC10ClO10,0.5308136630208313
mp-1097179,ZnSiTc2,3.0967147174999994
mp-780206,LiFePH2O5,0.02678414712500744
mp-720222,Na3CaAl3Si3SO16,0.030051102204859962
mp-776857,Li4Ti3Nb2Cr3O16,0.04645544223213705
mvc-10542,MgMo4O9,0.413636985357142
mp-17751,Y5Ge3,0.0
mp-18685,SrCu2GeS4,0.0
mp-853353,Li4Fe3Sn2Sb3O16,0.10119192198809124
mp-555983,Er2SiO5,0.0
mp-558320,K3U3Si2O13,0.0
mp-4875,GdTaO4,0.0
mp-607267,KPb2Cl5,0.0
mp-24941,Fe2NiO4,0.2810528200000002
mp-778393,Ti3MnCo2(PO4)6,0.03995471843749243
mp-736225,Sr2Re4H16C3(N2O7)3,0.017176791791069238
mp-867147,BaNaHg2,0.003268103828125035
mp-626547,Ti3H2O7,0.09142238666666104
mp-29713,NbTeCl9,0.01167713776515189
mp-23759,SrH2,0.04395987166666604
mp-567853,PuPt4,0.16282841599999998
mp-771603,Mn5Te3O16,0.06442144957031283
mp-756131,Sr2CaI6,0.025388718888889272
mp-695505,K2LiNb6(PO8)3,0.0
mp-571165,Dy2Fe14C,0.0
mp-680713,Ho(BO2)3,0.0
mp-23215,ThCl4,0.008065555000000835
mp-770271,BaLaCl5,0.0646750571428596
mp-754537,LiLuO2,0.06836407000000032
mp-695906,RbSmH8(SO6)2,0.0
mp-561738,Ba2NiMoO6,0.0
mp-1092301,La(GaPd)2,0.0
mp-24974,NaFeO2,0.05775930562499897
mp-28770,Ca2FeN2,0.007055536333333556
mp-1035479,RbLiMg14O15,0.19610098124999986
mp-763857,Li2VCr(P2O7)2,0.001020292878795459
mp-1025281,Ti2NiSe4,0.02052905571428809
mp-25495,CoP4H16(NO8)2,0.0
mp-677670,Na2Al2Si3(HO3)4,0.7520156910054343
mp-1075302,Mg3Si4,0.26501569619047594
mp-743841,MnPH6NO5,0.0019360381632660406
mp-763655,LiMn3O6,0.015608226124998126
mp-30665,Ga17Rh10,0.0
mp-863657,PmCl2,0.019627166388888284
mp-8546,SmB4,0.0
mp-772122,Li3V4CuO12,0.03898221399999624
mp-504878,VBiO4,0.016376129166666864
mp-31529,CoP2O7,0.09178354518751776
mp-556024,Na2TiF6,0.0
mp-690765,MgH2(SO4)2,0.6380284111538463
mp-763415,Fe8SiO12,0.04719488309523179
mp-754323,TmBiO3,0.02994542587499982
mp-760165,LiCu2(PO3)5,0.04900104532608385
mp-868284,LiMnPO4,0.07522818196427837
mp-769487,Li4Ti4V5O18,0.08096600637094475
mp-17637,USO6,0.0
mp-25788,V5(PbO6)2,0.005569376315785135
mp-752725,LiAgF2,0.07434914187499952
mp-764628,Na(FeO2)2,0.0181424595535713
mvc-10260,Be3Si3(AgO6)2,0.18273118747916506
mp-559931,VF3,0.0
mp-10711,VSi2,0.0
mp-26245,Li3Bi2P5O18,0.04633612986607717
mp-1097114,VCr2W,4.472084847499999
mp-31620,Co2P5O16,0.029261793559768982
mp-715516,Fe2O3,0.03695620450000625
mp-565227,NaV2O5,0.015914689062394242
mp-644092,Na2LiAlH6,0.003912518499996409
mp-763229,VOF,0.04802947958333448
mp-1029016,Te2MoW3(SeS2)2,0.05461029750000178
mp-1021209,NaLaMg6,0.15072832017045126
mp-15113,Na2Si3O7,0.09015439187500007
mp-1095231,Ba3(LiBi)4,0.0
mp-32927,Tb2O3,0.4995091842499999
mp-780129,Fe2OF3,0.05536483033334072
mp-1021406,KMg6B,0.443964710625
mp-695929,Cs3B6H12S4Br,0.0
mp-763166,FeOF,0.07211838666666459
mp-669436,ZrAsPd,0.0
mp-30577,CsK2,0.0036084758333334577
mp-676483,NaLiZnP2O7,0.0
mvc-11982,CaCr2O5,0.1735184651041486
mp-540388,FeP2O7,0.06542657697916797
mp-997630,ZnO,0.17250069874999951
mp-578820,Mn13Si2SbO24,0.003796938593749744
mp-778517,Mn3Sn(PO4)6,0.06370725345587491
mp-867812,LiAlNi2,0.002703743125000991
mp-1008472,CdSiP2,0.80355072
mp-1001606,LuFeC2,0.0
mp-23875,CuH4(ClO)2,0.04022022055555573
mp-556418,AlSCl3O2,0.0
mp-1210,ThCd2,0.0
mp-756632,NbO2F,0.04693133624999035
mp-556481,SrU(SeO4)2,0.0
mp-1097522,Be2NiPd,2.6684529875000007
mp-865013,EuAgAu2,0.09038728375000016
mp-975530,RbAl,0.6581729700000001
mp-7708,TlCdS2,0.16787278007812698
mp-775614,Na2MnPCO7,0.008882730625000335
mp-1071985,CeSnAu,0.049593821666666926
mp-780259,Li5LaO4,0.04965500312500204
mp-674357,SmAlF5,0.2701210069047617
mp-891955,Ca10V6O25,0.028784723414630342
mp-573340,Nb2Se17Cl12,0.0
mp-1039443,MgCd,0.0840044925000003
mp-31012,K2(NbBr3)3,0.0
mp-505815,CsLa2CuSe4,0.0
mp-1095725,InHgPb2,1.1152383650000002
mp-571015,CuP4Se4I,0.0
mp-1093771,Sr2ZnAg,1.3321714443749997
mp-1098090,CsRbMg14O15,0.4109131146370944
mp-1025881,Te2Mo2W(SeS)2,0.1036559738888867
mp-24980,TmFeO3,0.014125326333347843
mp-504678,CoSeO4,0.0
mp-1025280,Sr2Cu(OF)2,0.02413517214285488
mp-23493,Ce(IO3)4,0.0
mp-1028257,SrMg14Al,0.07252844156250005
mp-768013,Li5Fe(Ni2O5)2,0.011321614749999931
mp-1076797,La7SmMn6(FeO10)2,0.08942919894097301
mp-15999,Li3AuS2,0.0
mp-752648,Ba3(BrO)2,0.03501717071428168
mp-1018178,Ba2Zn,0.0
mp-604467,UO2,0.0
mp-975994,NaLa3,0.23876485624999955
mp-1076916,GdBiPd,0.0
mp-761369,Li13Ni15O28,0.004617751875001018
mp-775863,Zr2N2O,0.07073355833333395
mp-19977,SmIn3,0.0
mp-4564,Ba4Nb14O23,0.0
mp-554383,Na2Si2O5,0.002635040555552415
mp-865959,LiHo2Ru,0.0
mp-775763,AlBiO3,0.07809166162499538
mp-762190,LiP4WO12,0.03165709208332768
mp-754801,Li3Ti6O13,0.06871004350378129
mp-12681,LiMnTe2,0.152390835624999
mp-1094331,SrMg2,0.11118625833333318
mvc-13532,AlCoO3,0.2551371776250031
mp-17513,Ba4Tb2Cd3S10,0.0
mp-864954,MgMoN2,0.0
mp-772713,Na3SiSbCO7,0.030787349567313882
mp-1097381,Al2TcAu,2.3203345140625005
mp-861872,Ac2HgGe,0.0
mp-865221,Dy2IrPd,0.0
mvc-3765,YCoO3,0.048936107624998115
mp-775377,Li3V6O13,0.08923379511362306
mp-631369,Ba2NiF6,0.025248068888892302
mp-4626,CaCO3,0.02430096000000592
mp-555835,Gd3Sc2(GaO4)3,0.691349132625005
mp-1099624,BaSr7Ti5Mn3O24,0.015744424083328212
mp-31623,Ca2CoO3,0.18139816749999926
mp-556880,SiO2,0.14709445833333312
mp-779353,Li3Fe5OF11,0.04855219974999958
mp-24463,H3SO4F,0.0
mp-21952,Eu(In4Rh)2,0.0
mp-849772,LiTi3Nb(CuO4)3,0.08642713862501328
mp-1020721,Zn2SiO4,0.11109382904761578
mp-1021680,HfMg6V,0.1988798743750002
mp-754613,K2ErPCO7,0.020315350416673542
mp-744242,Na4TeMo6H40(NO20)2,0.5185465817364507
mp-1094197,Mg2Sn,0.1258117633333331
mp-1095283,PAuO4,0.0
mp-1099261,CsMg6GaO8,0.6077920168229181
mp-764840,V2(OF)3,0.06832313354166786
mp-568681,Mg8BPt4,0.0
mp-763236,Co6O5F7,0.08926224687499927
mp-14712,Li7PN4,0.0
mp-1027742,Te2Mo3W(SeS2)2,0.05373810333333218
mp-765005,Li2Co(SiO3)2,0.07175136863635245
mp-770897,Li4TiCo3O8,0.056011628124998936
mp-850151,LiVP3HO10,0.04092948667968432
mp-866022,CdPt3,0.025401642500000318
mp-707120,BaP2(HO4)2,0.11143922461538393
mp-7441,KP,0.0
mp-1019361,ThSbTe,0.038118899188035904
mp-756888,La2(SiO3)3,0.034703314464286095
mp-761561,LiCr(SiO3)2,0.0061221829999862365
mp-24396,MgH14SO11,0.008710220925925327
mp-774270,Li6V3P8O29,0.02314943773552081
mp-18021,Ge3Mo5C,0.0648986475555553
mp-1027480,TeMoWSeS2,0.09340854499999997
mp-1093868,YPbAu2,1.8721903825
mp-570470,CeSmI4,0.08210090222222233
mp-565880,BaSr(FeO2)4,0.4797568171428974
mp-761783,Li5Co2Cu3O10,0.058198232500000564
mp-11577,YbZn,0.23298991999999985
mp-1040210,KHfMg30O31,0.11077454402777942
mp-1034376,SrHfMg14O16,0.21437962023437684
mp-765278,Li5Cr3FeO8,0.06471613294118139
mp-1029121,Te2MoWSeS,0.060261975833333814
mp-653631,BaNa4Cu3F12,0.005879873750002318
mp-707337,K3H3Pd,0.0
mp-743637,CoH12SO10,0.010903382812557538
mp-3447,Th(CrGe)2,0.10701666199999947
mp-763624,Li2Fe(SiO3)2,0.0801144924999928
mp-10681,B2Au,0.6669399822222228
mp-1013910,LiFe2P2O9,0.058068224241068826
mp-1069057,Sr(CoSi)2,0.0
mp-652260,Rb5LiSi2NiO8,0.005457123946079889
mp-772303,Sb2(PO4)3,0.019726044044097613
mp-640533,Ba4NaMn2O9,2.397208333526635e-05
mp-766655,Li4V3P8O29,0.04947090712121671
mp-13726,Na3SrLaZnSi6O17,0.0
mp-1009132,HoBiPd,0.0
mp-20309,EuPb3,0.0
mp-12450,LiNd2OsO6,0.0
mp-1098939,Mg30SiNiO32,0.10574813933593764
mp-1037122,Mg30TiCoO32,0.049616931054687896
mp-753298,PrYO2,0.1024510697916643
mp-1078645,YCoGe2,0.0
mp-39072,Na3(CoO2)4,0.2813539853333333
mp-650928,K3Nb7O19,0.0076434258908051325
mp-1040385,KNaMg30O31,0.0865641919444462
mp-3335,Sm2Ti2O7,0.00979979090909211
mp-770361,LiV2BO5,0.002146495416658567
mp-378,ErSi,0.0
mp-774465,LiMn(SO4)2,0.012304342326384443
mvc-15503,Mg2Ni3O8,0.04045332581730676
mp-645,TbP,0.0
mp-22880,FeBr2,0.0
mp-779802,Li3MnV(PO4)3,0.07165716468746464
mp-1096701,Ga2CoIr,2.4212828329166665
mp-2968,Sr(MnSb)2,0.2046496432499989
mp-999357,NbN,0.15758684000000045
mp-29361,K2U2O7,0.0
mvc-1099,Ba2Mn3AlO8,0.2767191956696431
mp-40373,In14Ga3Pt2O8F15,0.0
mp-1093762,KNa2Pb,0.9697250138437504
mp-30830,V3Pb,0.25021534249999977
mp-972514,SmTa3,0.4791197793750008
mp-771931,V4CrCuO12,0.030826167847230582
mp-705041,Fe2P3C8N3(ClO2)4,0.5606714749274575
mp-558137,AlBPbO4,0.0
mp-28094,RbDy2Cl7,0.0
mp-571314,K2CoCl4,0.0012744198809526708
mp-556332,V7O13,0.016783381875006498
mp-6119,Na2Nd2Ti3O10,0.031198075661761138
mp-695278,Ba3La9Mg7Nb5O36,0.10037962516666177
mp-862836,PmAlAu2,0.0
mp-651409,Hf(TeCl6)2,0.12730077805555418