mpid,formula,e_hull
mp-764702,LiFe2(BO3)2,0.05523154744320635
mp-1094195,La2Mg,0.06891372499999981
mp-1095523,V2P,0.0003944971296316879
mp-1185,VRh3,0.007794691250003537
mp-510380,Mn3CuN,0.06500099150000338
mp-698650,Sr13Mn8O30,0.5936296212418348
mp-568256,TbSi,9.949249999952059e-05
mp-762054,Li2NbCo3O8,0.04805451026785956
mp-17355,Sr3GdRhO6,0.0
mp-1029116,TeMoWSe2S,0.04259643750000031
mp-22717,CaIn2Pd,0.0
mp-986979,MnCu2SnS4,0.0006306074999997693
mvc-7968,CaCrAs2O7,0.07693092874999419
mp-1722,Zn13Fe,0.0
mp-778232,Li2V3Cr2O12,0.02260356553727938
mp-761132,Ta5Pb11O26,0.01551356238091106
mp-985304,Cr(GaS2)2,0.06726163535714402
mp-721943,CuSiH12(OF)6,0.0031102740384598704
mp-21589,Ga9Ni13,0.0
mp-771684,LiMg2Mn3O8,0.018551040232170024
mp-1028194,LiCaMg14,0.043258537812499886
mp-626558,Ti3H2O7,0.07058510458332813
mvc-5437,Zn(BiO2)2,0.14035975702380998
mp-705030,LiCr(PO3)5,0.06263738285037856
mp-12769,YSi2,0.024753548333332983
mp-643907,Zr2FeH5,0.007592068750002845
mp-775131,Co3Sn(PO4)4,0.04462508130206366
mp-15519,NdZn(BO2)5,0.0061905817279424005
mp-571418,RbYbBr3,0.0
mp-772523,Ba8LiTa7O24,0.03394552722503619
mp-542214,Si6Cl10O7,0.01728708342391183
mp-769772,Li2CrO3,0.019132045000001874
mp-568612,SnHg6(P2Cl3)2,0.0
mp-1030128,Te4MoW3(SeS)2,0.06711101562500144
mp-12161,K2SrCu(NO2)6,0.09182795446763414
mp-31643,LiCrP2O7,0.024996479318182274
mp-10140,Sc3TlB,0.0
mp-1097230,Si2TcIr,3.2343750168749987
mp-21945,Ge3Ru2,0.0
mp-861572,LiMn2OF3,0.09482891785714198
mp-15323,Nd(BOs)4,0.0
mvc-12088,Al5(BiSe4)3,0.1469030149628905
mp-656852,Ti13O22,0.012693906500000908
mp-560695,SrV2(NiO4)2,0.0
mp-767444,Li2Mn(CO3)2,0.06455966045453909
mp-559947,K6CoS4,0.03739610127946191
mp-23339,NaBrO3,0.0
mp-579,CrC,0.25562764583333397
mp-540137,LiMoPO5,0.009852247734428944
mp-505677,Hg2MoO4,0.0
mp-27743,BiF5,0.0
mp-541956,CsTiAsO5,0.0
mp-757031,Mg2TiO4,0.0
mp-1080562,USnPt,0.0
mp-777720,Li2VO2F,0.05095549999999705
mp-975384,RbBiO3,0.0
mp-676581,Ag2CO3,0.02857856999999875
mp-637222,Gd2AlCo2,0.0
mp-1080602,SmClO2,0.4700354987239583
mp-766157,Li6VO4F,0.09895851541666724
mp-662720,P2SN3Cl5O,0.14079377453277786
mp-37199,Ce(NdS2)2,0.04064145428571475
mp-2025,HfBe5,0.0
mp-1017549,Ca(BH)2,0.2617459680500014
mp-973853,Pa3Tc,0.12822706499999906
mp-1098205,Mg6GaB,0.37569057375
mp-849776,InH10C3O11,0.04679333819999965
mp-1023132,K2Cu(ClF)2,0.0
mp-1099295,KMg6Sn,0.19325971208333348
mp-1008298,CrInNi2,0.1579764766666667
mp-21695,Ce(Ni2B)6,0.0
mp-1007778,TlN,0.7250466763100007
mp-35082,BH6N,0.0
mp-13037,TmGe2,0.0
mp-616218,Cd(In2I3)2,0.007651773242424388
mp-769004,Li3BiO4,0.028200208437499263
mp-25611,Li2NiPCO7,0.049480130572915115
mp-976273,Hf3Ge2,0.0
mp-30581,Hf2Cu,0.0
mp-9804,KHo(CO3)2,0.0
mp-1025649,Te6Mo2W,0.01027046361111239
mp-555570,BaCu(SeO3)2,0.021449866749998492
mvc-15987,Mg3Ti2O7,0.07008892854166683
mp-560772,Mg2B2O5,0.0018514336111090657
mp-862973,PmZn2Ag,0.0
mp-1033565,RbMg6CO8,0.8907925285546865
mp-769680,HfCrO3,0.09175434049999788
mvc-10047,CaNi2(PO4)2,0.011043736602585064
mp-760088,MgTi23O40,0.009189407395838955
mp-367,Sm4Sb3,0.008243164999999664
mp-989607,LaOsN3,0.030614880999998206
mp-569168,Ba6NaCu3Te14,0.0
mp-1022117,Mg6FeBi,0.18667238249999984
mp-766098,LiTi3Sb(PO4)6,0.0057839661428733535
mp-1094760,CeMg3,0.04454764124999988
mp-25477,CoP2(H4O5)2,0.0
mp-10797,CaSiNi2,0.0
mp-10026,ScTe,0.0
mp-976768,NaMg3,0.09904783375000004
mp-542431,SrV13O18,0.05962356181396089
mp-1073366,MgSi2,0.2563899046759284
mp-1096499,LiNbRu2,3.0830457237500006
mp-28586,AgXeF9,0.01921263596590883
mp-569918,K13Na2W7N19,0.00602341863143252
mp-1798,CeMg3,0.0
mp-1032692,Mg6MnCO8,0.458044579609373
mp-1040085,NaLiMg30O31,0.04353274261904705
mp-1097534,NbTc2Sn,3.37187021875
mvc-16036,Ca5(TiS2)8,0.09620781758620113
mp-769473,Li13Ni9O22,0.016389881874997236
mp-571035,OsCl4,0.0
mp-567062,SrLiFeF6,0.0
mp-757206,BaTi6O12,0.0040262303696039226
mp-1096581,Hf2MoPt,3.83131419875
mp-29986,La2Al2I,0.0
mp-770020,Li2CrFeO4,0.0019124637500089745
mp-756469,DyLuO3,0.07527941937499882
mp-18942,VP2O7,0.04137190849999861
mp-767891,Li2Si4NiO10,0.09118245176471174
mp-763477,Li7V2P7O24,0.06991901414582546
mp-559395,KLuP2O7,0.0
mp-1598,Na3P,0.0
mp-1008506,BaGaSiH,0.0
mvc-16487,CaEu2(CuO3)2,0.027347052272730817
mp-28253,LiBiO2,0.0
mp-772025,TaIn3O7,0.10885687363636176
mp-20336,USn3,0.0
mp-1087226,NaAl2Sb,0.4426450544642866
mp-777356,Li2Bi2(SO4)3,0.08822293629933586
mp-1095584,PRuS,0.004136294166665167
mp-31793,FeP2O7,0.07630851697916885
mvc-13158,CaVO3,0.0
mp-762843,LiFeP2O7,0.09513519454545437
mp-771407,Li3Fe(BO3)2,0.0683671891666604
mp-763155,Li4Co3Ni2Sb3O16,0.08721045187499142
mp-1080439,P4Ru,0.01592549166666668
mp-561405,SnH8(CO)4,0.18540369786764546
mp-1078969,Ba2NbVO6,0.0
mp-1077521,GdCo2B2C,1.0731019437500011
mvc-6503,Mn2ZnO4,0.11583101392857653
mvc-7707,MgTa2CoO7,0.12408491488636385
mp-1078650,LiLuSn2,0.13611625442307804
mp-697946,Cs2Zr2ZnH12(OF2)6,0.08872123557142775
mp-510623,Fe3C,0.050664818749995184
mp-973055,Hg3Au,0.1622636274999999
mp-1074106,Mg4Si7,0.2278529673737389
mp-13120,CeSi3Ru,0.0
mp-20270,UWC2,0.5522890068750002
mp-1029967,Rb15W7N19,0.0
mp-1021418,KMg6Sn,0.1913685183333336
mp-540188,LiMnP2O7,0.028422865909090163
mp-1216,YbO,0.0
mp-770270,LiCoBO3,0.0375625758796323
mp-985506,Ac3Tl,0.0
mp-28371,K2Zn3O4,0.0
mp-567731,Nb3Se10Br3,0.0
mp-989782,Cu,0.005812890000000515
mp-1016222,LiMg3,0.02188211249999772
mp-19517,KVPO5,0.0
mp-1097578,Y2BeIr,2.8057476458333337
mp-531991,La6Zr8F47,0.03551472744876793
mp-777225,Li4Fe(WO4)3,0.03974546849999872
mp-771956,Tb2Zr2O7,0.07110082602272705
mp-1013527,BeGeP2,0.0
mp-767650,Li4Mn2Fe(BO3)4,0.06859717391306752
mp-973740,MgAs,0.14664393524999975
mp-763375,V2NiH6(NO3)2,0.10398140888431406
mp-1074347,Mg4Si3,0.21593995123016008
mp-779954,Li3MnOF3,0.09776381749999884
mp-25736,Co2PH2CO7,0.02034659124999827
mp-849586,V4O7F5,0.06324768458333807
mp-1079141,Pr(GeIr)2,0.0
mp-616258,NaMnF3,0.0
mp-15844,TaPO5,0.04853132375000335
mp-863842,Ba2ScFeAsO3,0.01609976406249913
mp-31001,KSb3O5,0.0
mp-623035,FeSbPt,0.5354630383333348
mp-775235,Li2Mn2SbO6,0.08688418443181067
mp-999496,Na3N,0.30035638999999925
mp-561706,Na2CoGeO4,0.030602995624986917
mp-697072,CuHIO4,0.013132725892855746
mp-765866,Co3NiO8,0.07149771055555476
mp-669547,Re2Si,0.3098363670833333
mp-867345,TcIr3,0.0
mp-570147,Sc6Si11Ni18,0.0
mp-772118,NaCuCSO7,0.02319875863636245
mp-762561,LiFeP2O7,0.05815242000008514
mp-778877,Li5InO4,0.014512615500000159
mp-1077762,NdSiPt,0.0
mp-763390,LiCoCO4,0.093364686642869
mp-1087219,GePt3,0.003495980000000287
mp-690951,ErZr11Si11PO48,0.009189014722227995
mp-626787,VHO2,0.0
mp-853154,LiNbVO4,0.05677667294643385
mp-1065668,GdNiC2,0.0
mp-669566,ZnAu3,0.0
mp-1025221,Zn(NF2)2,0.589345244694286
mp-573700,AsSeI,0.0
mp-8884,ZnTe,0.0063004425000001705
mp-849652,Li3Ti2Cu3O10,0.09023350416666176
mp-23356,Bi4B2O9,0.0
mvc-4912,TiZn(SiO3)2,0.2575468797499898
mvc-15431,MoO2,0.6542933683333311
mp-554072,K2CO3,0.0023250858333279108
mp-6961,Sr(SbPd)2,0.024654070000000416
mp-3400,Lu(MnGe)6,0.0
mp-768016,Zn3Ni7O10,0.04001497324999903
mp-15661,Sc4C3,0.0
mvc-4744,Mg3Mn2(Si2O7)2,0.06978926324274948
mp-14434,K3GeS3,0.0
mvc-4870,Mg3Co2(Si2O7)2,0.0965236694565208
mp-979293,Sm3I,0.3762286091666676
mp-762695,Li4Ti3(FeO4)3,0.07757103667829135
mp-570034,ErB4,1.1291673115000007
mp-30176,U2AlCo3,0.052945936666668914
mp-775433,Li2Ni(PS3)2,0.03411266679999958
mp-775575,Rb2CoB12(H2O3)10,0.00759602679807081
mp-32405,LiVP2O7,0.021566603636359538
mp-694614,LiMnP2O7,0.056770605454545375
mp-685036,Al2O3,0.11111203749999987
mp-20059,ZrMnGe,0.0
mp-558958,H2O,0.03444665333334207
mp-1025444,ErPt,0.0
mp-11142,SrCu9Si4,0.0
mp-1039403,CaMg,0.07869148625000011
mp-2363,HfMo2,0.0
mp-4598,Sr4PtO6,0.0
mp-989459,B2(CN2)3,0.4057787170890901
mp-772354,Cu2W2O7,0.09638956727272596
mp-765932,VF5,0.009654252083333148
mvc-10066,CaTi4O9,0.09240037973214399
mp-1077403,SrCoO,2.0928748016666674
mp-654165,Tl4Mo(CN)8,0.2132956219770774
mp-5142,Sn3Te3Ir2,0.0
mp-763463,LiP4WO12,0.008197461527770676
mp-764943,Fe4O3F5,0.08641490666667995
mp-974739,Rb3Tl,0.11706711090909085
mp-672195,CeAgAs2,0.0014585690624997485
mp-766724,Li3Ni5OF11,0.053515275249997885
mp-976330,LiZr2Ir,0.02799373010416684
mp-1008558,AuN,1.5288500038099997
mp-999566,Mn2CuSb,0.2108187512500015
mp-16648,LiSn4Rh,0.0
mp-862823,PaInCu2,0.0
mp-569783,ErFe3,0.0
mp-680640,Ca11N8,0.2011634671381577
mp-775153,Li3FeOF3,0.08567338875000008
mp-961664,VSnPd,0.2940429133333309
mp-765950,LiFePO4,0.06667636267857002
mp-23909,H6CN3ClO,0.09269369935851657
mp-540263,VPO5,0.05581729107142941
mp-556099,Yb3B5O12,0.008108288020834742
mp-29252,Sn2ClF3,0.006389357916666505
mvc-7748,MgCoNi2O7,0.5386750967424234
mp-631356,NbOsPb,0.8989560861111103
mvc-396,Cu2O3,0.17881100000000227
mp-21043,RbPbF3,0.033176765999998636
mp-774023,Na2Ti3Fe(PO4)6,0.0186766172048749
mp-1094889,LiMg,0.0
mp-669318,Eu5Si(Cl3O2)2,0.0
mp-14019,NiB,0.004538573541667645
mp-29030,ThTl3F7,0.0
mp-1080812,TmSb(PbO3)2,0.00429587150000188
mp-556395,ZnS,0.000730418749999906
mp-1007685,InAgSe2,0.0993123425000002
mp-10735,Zr2O,0.2269278469999972
mp-778617,Ni3OF5,0.07098549995370274
mp-27625,Ge19(PBr)4,0.0
mp-1096836,Ba3SnS4,0.06650969843749976
mp-780485,LiVP2HO8,0.031545536442335376
mp-780131,Li7MnNi3(PO4)6,0.07727214138718352
mp-558718,MnVAgO4,0.02032548735713835
mp-767677,Na4(WO3)9,0.008837008056818974
mp-677467,Rb5Te3H4NCl18,0.0
mp-1038237,Mg30TiAlO32,0.059711212906250026
mp-1096313,Hf2RePd,3.8287670375
mp-779274,Mn4O7F,0.05643724989584431
mp-1096877,Ca3Co4O9,0.02795403593749857
mp-8584,NaErSe2,0.0
mp-625823,Be(HO)2,0.1097085325
mp-865877,Ti2RePt,0.0002775937500008041
mvc-314,Mg(Cu2O3)2,0.10067909931817633
mp-922,CoPt3,0.0
mp-991416,Ce3Ga,0.0008312024999996838
mp-2948,Si2N2O,0.1924026227500004
mvc-7951,Mg2Fe3O8,0.10904292947115923
mp-1026464,HfMg14Mo,0.18952746156250025
mvc-3263,CaFeSiO5,0.06263747919271001
mp-1096996,H6CNF,0.10798246236111098
mp-754699,NaTi2O3,0.07819235634259769
mp-611758,MgMnGe,0.001201533333331284
mp-10010,Al(CoSi)2,0.0
mp-989558,Cs2TlGaF6,0.0
mp-774691,Ba6Na2P2Ru2O17,0.0
mp-753975,Dy2(BiO2)7,0.06858972570652089
mp-30233,Na3As7,0.0
mp-554676,H3CS,0.04749373380357192
mp-14334,K2RbPdF5,0.0010207753703683764
mp-556503,LiH3CO3,0.06935844624999987
mvc-5026,MgWO3,0.0878066621666651
mp-773755,Na3Li3Mn2P2(CO7)2,0.035481330576923036
mp-764261,NaLi2NiPCO7,0.03205087192307498
mp-1073587,MgSi2,0.2808313425925948
mp-25064,RbMoP2O7,0.0
mp-984052,Ba(LuS2)2,0.0
mp-1099886,Ba3SrCo(CuO4)3,0.08124140843750016
mp-20663,TmCuPb,0.0
mp-769735,Li3MnPCO7,0.08436923192306534
mp-759734,Li3Bi2(PO4)3,0.08855601925000213
mvc-12566,ZnNi2O5,0.4866763198437632
mp-777694,Li4Ti3V5O16,0.017056221607159472
mp-541987,K2PrH4N5O17,0.008663444267241083
mp-756762,TbTmO3,0.07989460474999888
mvc-6425,MgV2CuO7,0.015675312424242804
mp-1070063,CeAl3Au,0.0
mp-37692,Li3RuO4,0.0
mp-17031,KAlP2O7,0.0
mp-12451,LiLa2OsO6,0.0
mp-1021352,Mg6TiNb,0.15720797166666636
mp-1028192,Mg14MnAl,0.08955100375000002
mp-608543,Sc2CrC3,0.0
mp-17699,Er2Cu(B2O5)2,0.005212012867644944
mp-30267,CeGa4Os,0.0
mp-1094800,MgSn,0.061110888750000474
mp-779487,Ti17(NO4)6,0.030029155055748543
mvc-16052,Sr3MgCo2S2O5,0.3364916724038469
mp-850493,P4WO12,0.009818386029397884
mp-569882,U6Co30Si19,0.0
mp-779952,LiCrP2HO7,0.03419695268847889
mp-1016871,ZrHgO3,0.3485806545000011
mp-611642,NiPbF6,0.0001492937499998348
mp-505149,CsCr5Se8,0.0
mp-10185,Mg3ZnC,0.22317158766
mp-1097097,Hf2AlRe,4.139312393125001
mp-776512,MgCoO3,0.09018931637500494
mvc-6057,Mn2ZnO4,0.009874144285721977
mp-652036,GdFe5P3,0.0
mp-556173,ZnAs2C6S12N12(OF2)6,0.12319431715008465
mp-19500,BaCr10O15,0.03149256144230605
mp-31266,YPS4,0.0
mp-11778,ThMnSe3,0.0
mp-672272,Sm2Pd2Pb,0.0
mp-764964,LiCr2(CO3)4,0.09946658026316336
mp-23517,RbPbI3,0.0
mp-763368,LiV3P5O19,0.07600262883924548
mp-775846,Li4Mn(WO4)3,0.04957826149999889
mp-989621,LaOsN3,0.0
mp-861965,Ho2RuRh,0.0
mp-765518,Li3Co3OF7,0.03952368535714257
mp-6331,Na2Y2B2O7,0.0043828411965805
mp-28701,CsSbS6,0.0
mp-4423,La2Ti2O7,0.0500664445454575
mp-559344,WSF4,0.13844595394097325
mp-580525,DyNiSn2,0.0
mp-1096367,Sc2NiPd,2.566931417500001
mp-1020658,NaB(SO4)2,0.0
mp-1027408,Te6Mo3WS2,0.09825789999999923
mp-1073669,MgSi2,0.30968717425926195
mp-30692,GdTlPd,0.0
mp-556025,MgH8C2S2(NO2)2,0.07786999321052601
mp-565782,TlCr3O8,0.0
mp-1638,SrAl2,0.008716471666667225
mp-15801,Zr3PO2,0.3621532848333331
mp-866216,CaDyRh2,0.0
mp-608432,KFeF3,0.202635636000001
mp-761988,LiNiPO4,0.0589752744047658
mp-1031861,Mg6TiMnO8,0.15332212478374266
mp-1096895,Ca2Ti2O5,0.06829923125000548
mp-559653,SrCa(CO3)2,0.009012549249998614
mp-782636,Li2Cr2FeO6,0.10998355284994066
mp-1093990,ZrAsIr,0.5094388166666661
mp-566012,KCr2FeO8,0.0
mp-767309,LiMn2OF3,0.058433116071427975
mp-850359,Li5Fe5(CoO6)2,0.02693097895833585
mp-23317,AsBr3,0.0
mp-567287,Rb6U(Mo2O9)2,0.0
mp-1069004,U2OsC2,0.0
mp-763858,Ta2MnO6,0.016751182083332594
mp-545552,SnO,0.0726900300000013
mvc-15376,Mg2SnN2,0.1902243971249984
mp-27350,U(BH4)4,0.0
mp-667426,Bi2Te2O7,0.0
mp-672306,Ba6In5N,0.0
mp-864241,AcFeO3,0.0
mp-1077663,SrCa7TiMn7O24,0.0977998519583334
mp-1076247,Ba6Sr2CoCu7O24,0.07139292271874886
mp-19926,La2Be2GeO7,0.0
mp-1071163,TiO,0.0
mp-1079477,Ba2VMoO6,0.076804123750005
mp-863916,Ta2Co4O9,0.013153851999998523
mp-1033825,BaMg14CdO16,0.2043374464062504
mp-975647,Pr3Ag,0.14307001000000066
mvc-4249,Mg3Ge3(SbO6)2,0.2268594843749945
mp-567931,InSiTe3,0.0
mvc-10462,MgCu2(MoO4)2,0.06821551826922878
mvc-5957,TiZn2WO6,0.08336984558333249
mp-557031,S,0.04484049062499995
mp-568452,Ce3Si11Pt23,0.0
mvc-10474,ZnSn4O9,0.2457476085714294
mp-762018,LiCoPO4,0.01186745803571565
mp-30822,PuOs2,0.395649447708335
mp-543100,LiCoSiO4,0.06579120457141485
mp-23074,BiOF,0.026985088333332463
mp-21065,SiP2,0.018253314999999937
mp-883306,LaAl12O19,0.053288067845985054
mp-759534,LiBi2(SO4)3,0.09317544096353547
mp-1038705,SrMg30NbO32,0.09204942584374988
mp-861541,Li2MnSn(PO4)2,0.059569606726197925
mp-558362,CaMgGeO4,0.0
mp-720554,LiPH4NO3F,0.013811695227275322
mp-777974,Li3Fe8(BO3)8,0.0707145620203331
mp-867200,Pm,0.0
mp-864901,LaAu3,0.0
mp-1078504,YbIn2Pt,0.0
mp-568836,Ba3GeI2,0.0
mp-1852,UF5,0.0
mp-1441,CsO2,0.0
mp-850771,Li8Mn7Fe(BO3)8,0.005318948159719561
mp-1078578,NaCd4As3,0.0
mp-767085,P3W2O13,0.00268486148151581
mp-760762,NbOF3,0.0
mp-640898,La6Mg22Al,0.05515630025861951
mp-1031185,LiMg6BO7,0.4700166115043008
mp-510486,Ta3Al2CoC,0.0
mp-15932,SmCrS3,0.008346740500001282
mp-23779,K3H(SO4)2,0.003201853348214989
mp-767477,Ta2MnO6,0.022912051111109832
mvc-572,Sr2Mn2GaO7,0.21429074531248293
mp-759812,Li4Ti11O24,0.057554721410257415
mp-867673,Na3(Pt3O4)4,0.0
mp-1078378,YbInPt,0.0
mp-32043,LiMo(PO3)4,0.01106738513888672
mp-567677,GeI2,0.11797358000000012
mp-3536,MgAl2O4,0.0
mvc-3800,Mg2Sn2O5,0.4143032672222224
mp-1098631,Mg30AlVO32,0.04921891062499828
mp-973256,LaMgTl2,0.02002136791666631
mp-642316,CuBi5PbS9,0.0038279654687487508
mp-19408,LiV2O5,0.024129509375004687
mp-676713,Hf8PbO24,0.4240510837121203
mp-779975,Hf2N2O,0.006592273999997289
mp-568135,Cs4Sc6CCl13,0.0
mp-864808,TbInPd2,0.0
mp-685952,Al2Hg5Se8,0.02498878400000004
mp-1096907,CrN2,0.34402171198444265
mvc-8337,Cu3(MoO3)4,0.019380653590217456
mp-1078903,SrZnSbF,0.006879070000000097
mp-698680,Fe21Ni9O40,0.09310070032142903
mp-777738,Al(HO)3,0.0382796160714296
mp-862853,PaP3,0.0672747229761903
mp-1078807,Nb3In,0.034730931249999486
mp-996986,LiCuO2,0.04592179250000061
mp-1057125,KS,0.4667570691666669
mp-554138,Pr2SbO5F,0.0
mp-1026688,NaSrMg14,0.09126204375000002
mp-1096634,Li2CdPt,1.4701414504166668
mp-1096121,KTlHg2,0.6808150399999999
mp-20055,NpSb,0.016542332500000256
mp-541310,CaGaGe,0.0
mp-19034,Mg3V2O8,0.0
mp-779012,Tm3TaO7,0.041958605113636686
mp-1030235,Te3MoWSe,0.04876610979166518
mp-762782,Li3VF5,0.0688235752777775
mp-510608,ZnCuAsHO5,0.009349456805552771
mp-546285,NbI3O,0.0
mvc-6179,Ca(AgO2)2,0.034173516785714675
mp-1094052,Sm3AlN,0.0
mp-640044,Pu2SnPd2,0.7379995659999992
mp-1078917,NdTe3,0.0014972037499996205
mp-849783,TeH14C3S3(N3F2)2,0.08698106513640537
mp-23807,AlHO2,0.033222436250000875
mp-8789,Ca4As2O,0.0
mp-767083,LiMn2(PO4)2,0.060245567499999986
mp-18971,Mn(PtO2)3,0.0
mp-12986,PrB2Pt2C,0.01896613583333462
mp-29684,La5Sb3Br,0.0
mp-1097468,CaScIn2,2.037997496875
mp-618929,Ni2GeP,0.02981880921874946
mp-1032577,Mg6FeCoO8,0.09186522140625007
mp-1098089,HfMg30BO31,0.13369500240079454
mp-23685,CaH2(CO2)2,0.128301805138892
mp-983062,K3Cd,0.047474918653846336
mp-1096840,Ba,0.003055974999999877
mp-23733,Cu3H2(CO4)2,0.006825035833335491
mvc-7571,MgFe2CoO7,0.2323159583522729
mp-27202,B9H8S,0.0190194721555832
mp-1068807,EuSi3Rh,0.0
mp-29273,Ca2Ge7O16,0.0
mp-28929,DySI,0.0
mp-24154,NbH2,0.0
mp-1079173,HoInCo2,0.008947375555556471
mp-1097467,ScZnAg2,1.7589835266666685
mp-1040035,LiMg30SbO32,0.039617892430554136
mp-567163,K2UMo(IO6)2,0.0
mp-764999,Li2(CoO2)3,0.03451997477273228
mp-623038,Nb5As3,0.0
mp-778899,LiCrPO5,0.0579039707187361
mp-1040036,LiHfMg30O31,0.06114559095238192
mp-765121,LiMn3O5F,0.07788729856249876
mp-31277,Sn4Ir,0.003185701499999638
mp-641545,CsCr3O8,0.0
mp-766091,Li4La5Ti6Nb2O26,0.04963349776486582
mp-1040270,KMg30SiO32,0.10878953494140653
mp-27382,UTlF5,0.0
mp-770336,Li4Cr3GaO8,0.017103705000001142
mp-773517,ScMn2O5,0.023405322695314368
mp-510661,Gd(IO3)3,0.0
mp-1019099,SmCoP,0.10034779166666664
mp-1037428,YMg30CdO32,0.07736872355468716
mp-9805,KYb(CO3)2,0.0
mp-541950,GaN5O14,0.0
mp-19159,Ca2PdWO6,0.33962007466666577
mp-1397,Rb2Te,0.01913985833333021
mp-1093757,ZrTiAu2,2.713561675
mp-557009,ZnS,0.0008156637499991959
mp-1094449,Y3Mg,0.0506949818749991
mp-580597,CsCrI3,0.05269530483333318
mp-20753,CeCoC2,0.0
mp-30724,ThHg3,0.0
mp-555997,OsC4(ClO2)2,0.11749466068181658
mp-19971,ZnCo2Ge,0.0
mp-650178,Se5SO3F,0.0
mp-676501,K3Sn2S3BrO12,0.0
mp-1033559,RbMg6CO8,0.9135077166796864
mp-13206,PrZnPO,0.0
mvc-71,Ca2TiNb2O8,0.17873082596154788
mp-645796,TlFe(MoO4)2,0.0
mp-1032218,LiMg6CoO8,0.060339783749993714
mp-763411,Li3P3WO11,0.07703709240739265
mp-1025289,Ce2Fe2Si2C,0.0
mp-777787,HoAsO4,0.06931972291666977
mp-776146,Li2V3FeO8,0.010685878943416329
mp-19432,KNaV2O6,0.0
mp-638033,SiO2,0.7006315066666664
mp-22237,CeMgCu2,0.0012091600000001534
mp-631449,LiTaBe,1.4361565345833327
mp-1099742,Ba2Sr6Co3(CuO4)5,0.07885020640277318
mp-30367,Ca5Au2,0.0
mp-1078547,YSnPt2,0.0
mp-1096680,LiCaHg2,1.108480115
mp-601326,Sr6Ge5N2,0.0
mp-578817,V2Cd4(TeO5)3,0.0
mp-20874,EuB6,0.0
mp-1071554,LuCo2,0.0
mp-997015,PbAuO2,0.02733648249999998
mp-565823,SmMoClO4,0.0
mp-23146,TlZnSClO4,0.0
mp-2327,TiZn16,0.0
mp-769266,Ca3Ta2O8,0.011318738571414856
mp-1031009,LaHfMg6O8,0.4832209292187502
mp-26823,Li2Cu3(P2O7)2,0.028060163043476468
mp-558392,Bi2Ir2O7,0.0
mp-30940,Cd2Te2O7,0.0
mp-780155,Li9Fe3(OF7)2,0.04452636430555934
mvc-9052,LaZnFeWO6,0.08013233929166219
mp-999274,RbNaH2,0.10542934000000016
mp-1026845,CsKMg14,0.2406755687500001
mp-571313,Hf(SeCl6)2,0.0
mp-1527,TbCu2,0.0
mp-4212,Nb3Co4B7,0.0
mp-568940,Y(NiP)2,0.0
mvc-10063,Zn(NiO2)2,0.050227563095234906
mp-23544,Bi4Br2O5,0.0
mp-1062169,ErCd2,0.43144603
mp-680932,OsPbO3,0.0
mp-25976,Cu(PO3)2,0.022110988611111715
mp-569582,La4MgCo,0.0
mp-764760,LiVOF3,0.024456817956358456
mp-1001742,TaSe2,0.0002363299999998958
mp-781134,V2OF5,0.002664106249999243
mp-973456,Lu2TcAu,0.10160659437500108
mp-14581,CsCu2F6,0.0
mp-1018668,CeTlCd,0.017331767083333727
mp-23099,Cs2Pd(IBr2)2,0.0021896733333330864
mp-553954,B4COF6,0.3022690447222223
mp-1098929,Mg30NiSnO32,0.07113348414062504
mp-677709,Na3Sr7Ti7Nb3O30,0.024100074099999702
mp-570449,Ba14Na7CaN6,0.0
mp-771221,Li4MnCr5O12,0.0861983065909131
mp-565402,TeWNCl4F5,0.32092855882611016
mp-774171,Li3Mn2(SiO4)2,0.0868120592499837
mp-866162,YMgAg2,0.0
mp-510374,GdAs,0.0
mp-765648,Li2Ni3SnO8,0.016769208357140464
mp-19460,Ba5Nd8Mn4O21,0.0
mp-22749,Mn5C2,0.013793311583851777
mp-655234,CrCl2,0.06391669648148213
mp-974452,Re3C,1.407506827500001
mp-769445,Li11Fe12(BO3)12,0.052195577957760086
mp-1073483,MgSi2,0.21786725092592807
mp-1094136,Ni,0.7955117400000002
mp-867824,LiAg3F8,0.07150525416666476
mp-770401,SbPO4,0.05684536916666971
mp-18184,KYbP2O7,0.0
mp-558762,KSnS2,0.03548142296874968
mp-40356,BaLaMnMoO6,0.15499478772222375
mp-770506,V5BO9,0.06060321149999836