mpid,formula,e_hull
mp-765673,NaMnO2,0.02895969562500156
mvc-6286,Ca(SbO2)2,0.16457292779762156
mvc-2513,Sr2YTlFe2O7,0.09747050999999997
mp-549590,RbClO2,0.27187057875000065
mp-17166,K2B4O7,0.0
mp-849542,Li2MnVP2(HO5)2,0.025799356805541684
mp-761578,Li2Cr3(SiO3)4,0.003691102333327478
mp-17420,SmC10,0.3406282590151513
mp-3830,NiAsS,0.0
mp-980070,YbEr3,0.12238492625000008
mp-1096276,Ba2MgCd,1.4436857765625
mp-776880,Li2Fe2Ni(PO4)3,0.06365648700001802
mp-24504,H2,4.440892098500626e-16
mp-976407,Li3Ac,0.17680761812500026
mp-707985,K3Na3TeP6(HO4)6,0.057569376104654964
mp-1028022,YMg14C,0.2281434485624967
mp-989189,SbBrO,0.03217023583333045
mvc-12571,ZnCr2O4,0.22437463142856906
mp-541097,Zr3Pb(O2F3)2,0.0
mp-1096968,CrN2,0.3349699396233312
mp-906708,Ba2FeMoO6,0.03933918500000999
mp-558393,Rb2Nb3Cl7O5,0.0
mp-21582,Nd4In5S13,0.017887878636366317
mp-622633,Nb6Co7,0.7981040338461538
mp-23534,KSn2I5,0.0199439001041668
mp-1029403,RbGe2N3,0.06234682775641165
mp-557328,Li3Zn2SbO6,0.022003109999999104
mp-621659,La2Ge5Ir3,0.0
mp-1078195,SiI3,0.00013646937500011447
mp-1029354,MnZn2N3,0.0
mp-27430,Sn2BF7,0.0
mp-1006371,CePS,0.0
mp-1098609,HfMg30BiO32,0.18135864871093688
mp-622615,SrLaMnCoO6,0.00726324039062476
mp-773332,In2Co2O7,0.012314227272731236
mp-780217,Li7CuO4,0.09329926062499982
mp-973554,K3Sm,0.5573878518750002
mp-568912,Be12Nb,0.0
mp-721330,Rb14Na3Al17Si31O96,0.09258446229813178
mp-557074,BaPr2Ti3O10,0.002452291406248364
mp-1077771,Sc2Al,0.0
mp-753945,ClOF3,0.0
mvc-15448,YNiO3,0.20994836950000006
mp-632822,Li5B4,0.35654145777777746
mp-699672,SrMn2(PO4)2,0.0
mp-753418,SrNd2O4,0.03243881250000058
mp-689957,Li2Mn(PO3)4,0.04882176399122695
mp-22634,K4SrU3O12,0.0
mp-17704,Tm2SiO5,0.003681438203123832
mp-3810,Hg(AsO3)2,0.0
mp-579728,K3Nb6VO19,0.0
mp-8462,Hf3Al2,0.03192581000000061
mp-864673,HoCdPt2,0.0
mvc-7403,MgBiSbO5,0.09778881937499764
mp-770006,Al2CrO5,0.041722649999977435
mp-778794,V3Cr2Sb3O16,0.11050567854166626
mp-1026841,NaLiMg14,0.035293282812500104
mp-1079426,Tl2SiHgSe4,0.020072768749999532
mp-976884,PrBiPd2,0.006545163750000249
mvc-10196,CuBiO4,0.17562401385416582
mp-1097279,Li2PtPb,1.7801395649999994
mp-15125,Rb2CdSi5O12,0.0
mp-1079213,Y2CuGe6,0.03411385055555538
mp-850760,Li2MnSi4O11,0.09059967766666777
mp-28340,CaAsPt,0.0
mp-753809,BaCaI4,0.02737741687499984
mp-971921,TbSmHg2,0.0
mp-558364,Cu4Te5(ClO3)4,0.004754870850001147
mp-695996,BaH8C6(N3O4)2,0.008429733563221298
mvc-13134,CrO3,0.1873422459375007
mp-722189,H8PtN2(ClO)2,0.06804268600800079
mp-27673,TaPS6,0.0
mp-622183,Co2PClO4,0.0
mp-1023939,MoS2,0.000744463333333556
mp-974584,ReAu3,0.6536743187499994
mp-1094438,Mg2Zn,0.08463774193333418
mp-700554,LaMo2O5,0.17778628833333346
mp-851292,Li9Nb10Cr6(PO4)24,0.03253128838967178
mp-755969,Sr3La4O9,0.09884393937500137
mp-775257,Li8Mn3Fe5(BO3)8,0.004534984270834208
mp-975199,RbSr3,0.13183213749999978
mp-861465,LiMnPO4,0.06281046214285624
mp-1018752,LaTeCl,0.0
mp-569685,LiZnP,0.44841352333333395
mp-769446,Li11Fe12(BO3)12,0.0328170420422671
mp-767705,LiCo(CO3)2,0.08295043415000336
mp-769665,VCoO4,0.11372134927083888
mp-973335,Hg2H6CN3Cl5,0.000390924767745382
mp-1020108,LiCaMgSiN3,0.004160533531743837
mp-9003,K2NbCuSe4,0.0
mp-781680,Fe3O5F,0.10396523486111152
mp-1099308,BaLiMg6,0.17541197656249996
mp-765024,LiVF5,0.03972377785714798
mp-540385,Li3Cr2(PO4)3,0.035864335500003015
mvc-14421,BaCa(CoN2)2,0.6862648490625007
mp-780810,Li4Ti3V3(TeO8)2,0.06586608841836837
mp-694876,NaSr2LaTi4O12,0.00948360889166544
mp-3194,Tb2Al3Si2,0.0
mp-616850,Sr2VClO4,0.0
mp-1031104,CeMg6BO8,0.5432108110124991
mp-973579,FePbO3,0.18111439849999744
mp-12829,LiCaGaF6,0.0
mp-687011,Ba7Ca2Mn5O20,0.0
mp-1076296,Ba6Sr2CoCu7O20,0.0981912163194476
mp-32098,Li3Mo2(PO4)3,0.0
mp-1059242,ClO,1.5362586033333336
mp-768077,Na2FePCO7,0.005144887499986872
mp-1548,PrMg,0.0
mp-865580,Li2DyIn,0.0
mp-28179,NaTaCl6,0.0
mp-996944,Cs2TlInBr6,0.0
mp-625964,Ba(H2O3)2,0.03651985909090882
mp-1095148,TiFeAs,0.0
mp-649509,Yb2(SeO4)3,0.0
mp-11090,EuCdPd,0.0
mp-31168,Li2AlAg,0.0
mp-1037085,LiMg30CoO32,0.020835516562487832
mp-1080407,Ca2CoO3,0.3126217641666633
mp-12746,Ce2Ga10Pd,0.00730993833333038
mp-769958,MnCSO7,0.08606015120833099
mp-566035,K2Mo2P2O11,0.0493285838235078
mp-578824,Na9V14O35,0.0
mp-568483,NbCl5,0.0014431765277773678
mp-623088,KTbF5,0.007690712619048412
mp-4064,Ca(NiP)2,0.0
mp-540182,LiVP2O7,0.01434248909090474
mp-24653,TiH8N2F5,0.026757390624999808
mp-1028131,CeMg14Mn,0.1142096425000001
mp-641854,Ba2CaV2CuF14,0.0
mp-4250,Tb(SiPd)2,0.0
mp-765558,Li6NiOF6,0.085921119285711
mp-36966,NaSm2Se3,0.005945827499998835
mp-697948,Cs4Mg3H10,0.0
mp-3376,Sr2SnO4,0.013398734285714477
mvc-16376,CaCu(GeO3)2,0.047310736850017854
mp-1080110,Ti(NF2)3,1.3491858655480016
mp-11570,TbSn3,0.054820593333333
mp-1029878,SrMnN2,0.0
mp-23217,Bi2Rh,0.0
mp-766100,MgTi11O20,0.009327621354144002
mp-762292,Li4V5O10,0.04607954861841357
mvc-11635,CaV2(PO5)2,0.0
mp-862873,AcAgHg2,0.012821992916665527
mp-29672,AgC4N3,0.3430790141075013
mp-541487,TlPt2Se3,0.0
mp-864626,HoThTc2,0.0
mp-1016238,Mg3Sn,0.05588348000000032
mp-1079739,GdSnPt,0.0
mp-571268,CuHg3As2Br3,0.018891419629630143
mp-1059288,Lu,0.005638250000000511
mp-761494,LiNi4(PO4)3,0.09602137862498683
mvc-620,YFe(WO4)2,0.06850484729166872
mp-6521,LiLaTiO4,0.028936688750002663
mp-974828,Rb3Pr,0.5906450350000001
mp-767103,LiVSiO4,0.06988032187499815
mp-6031,Li16Nb2N8O,0.0
mp-1018632,Ho(CuS)2,0.30521370600000003
mp-6997,Sb2Te,0.5747074044444442
mp-556756,KSb2PO8,0.0
mvc-1347,BaNi4O7,0.3240766604166678
mp-776187,Li4Cr(WO4)3,0.03599858925000099
mp-570670,YOs2,0.0
mp-1066751,Sr2UMn,1.1345452975000008
mp-686183,Zn(Bi25O38)2,0.03746793474409316
mp-1076863,Ba2Fe2O5,0.012558385238096824
mp-775540,Li2Ni3SbO8,0.014504876964286597
mp-735475,CoB12H28(NO15)2,0.005959089306502463
mp-27830,Cs2SeCl6,0.0
mp-567652,Cs2LiYCl6,0.0
mp-1018740,LaCoSi,0.0
mp-560570,Rb2NaAl6F21,0.0
mp-853254,Fe10O9F11,0.06598263233333324
mp-25669,Mo3P3O16,0.007901329772703747
mp-365,MgB4,0.0
mvc-9918,LaZnCrBiO6,0.1471615398214272
mp-559161,CrCdF6,0.0
mp-778009,LiBi6B3O14,0.0382625965277823
mp-1035120,Mg14NbCoO16,0.13910689187500225
mp-22460,LiIn,0.0
mp-766557,Mn2OF3,0.06424071054167158
mp-29287,Cs3CoBr5,0.0
mp-5640,ErSnAu,0.0
mp-696998,K6BiH3(Cl2F)4,0.0008188290909081353
mp-1098047,CeMg6B,0.3221962722656251
mp-1094233,MgSn2,0.052790697500000316
mp-754031,YBrO,0.0
mp-568709,Dy2Ni7Sn3,0.0
mp-773565,Li4FeO3F,0.10307681305556572
mp-17449,Tc3P,0.0
mp-765450,Mn2Cd3O5,0.0264996480000006
mp-680193,Ca4Al6O13,0.04068886056159293
mp-867030,Ca4Sn5S14,0.19482360108695573
mp-2278,HgO2,0.4015790354166682
mp-1097328,Nb2CrMo,4.212167655000002
mp-776359,YNb2NO5,0.06397963055555778
mp-762660,Li2(NiO2)3,0.02415163219696748
mp-5032,La3Ru3O11,0.007217237794117538
mp-780579,Li3V3P8O29,0.04392967351744481
mp-1035685,Mg14VFeO16,0.05279883898437632
mp-4627,CoAsS,0.0
mp-31460,NbCoSb,0.017473950964913776
mp-555777,ZnGa3N3O,0.02454518031249986
mp-778714,V4O5F7,0.010999666875017413
mp-541275,Cs2U(Cl2O)2,0.0
mp-567347,Li2AgSn,0.0
mp-18816,Fe2SiO4,0.0369243550000018
mp-850168,Li5Mn6(BO3)6,0.03612186169045728
mp-566540,Na2CrNiF7,0.0
mp-754253,EuTlO2,1.2546390337500002
mp-8111,LaOF,0.005269358333332974
mp-755013,Li5TaO5,0.0
mp-1078956,PtN4Cl2O,2.5383971078873606
mp-690117,K(WO3)6,0.00016209199996986
mp-559274,Ba21Ge2O5,0.0730895508928584
mp-771923,Li6FeO4,0.01870179318181986
mp-20980,NaNdTiO4,0.0059109689285765646
mp-720810,K5H3S4N2O15,0.1651084670637868
mp-568890,Tl2CdGeTe4,0.005529729218749946
mp-1016221,Mg3Ga,0.046968858750001896
mp-554053,SrGaBO4,0.0
mp-21149,GdO2,0.1414436889583328
mp-865006,Dy2MgAl,0.0
mvc-10044,Mn2Zn(PO4)2,0.05574677410256257
mp-667386,Na3Sr4Al5F26,0.0
mp-22181,Gd(GePd)2,0.0
mp-558947,SiO2,0.008691414027776291
mvc-2169,Ti5O7,0.15742631333335133
mp-759416,Li3Sb(PO4)2,0.08859320011904792
mp-31785,LiFeP2O7,0.016844579999999887
mp-1079348,B3Os2,0.0
mp-11792,PrCuSe2,0.0
mp-865039,HfTc2Sn,0.0380963706249986
mp-1093666,HfMnIr2,3.386111238125001
mp-1097566,CaHgPd2,1.53495999125
mp-779961,Co6O5F7,0.09998605409722304
mp-4822,Y(SiPd)2,0.0
mp-22953,YbCuBi,0.0
mp-720340,Ca5Ti3NbAl(SiO5)5,0.00979857320312938
mp-850329,Fe4O3F5,0.07282432416665953
mp-758038,La2Ti3O9,0.03712931339283543
mp-553881,SiO2,0.36080698583333337
mp-21181,YbNiB4,0.07436987954337937
mp-37255,Na2RuO3,0.0
mp-1079241,Ce2Si7,0.07011383444444519
mp-705341,Li3Mo4P9O32,0.033325834427011536
mp-9561,VS2,0.020121583333334137
mp-1018068,CrFe2Si,0.0769138937499978
mp-778701,Li6MnV3(PO4)6,0.05615981387501279
mvc-11991,YFeO3,0.0
mp-866522,Ca2SnS4,0.14661350249999838
mp-775171,Li4Mn2CrNi3(PO4)6,0.08736142231252142
mp-504360,Li9Cr3P8O29,0.0
mp-1096244,TiTc2Ge,3.376155289642858
mp-1028367,LaMg14Ni,0.09602527734374976
mp-601848,Fe11Co5,0.0
mp-849535,CrPO4F,0.03826592104167137
mp-777462,Li4Ni3Sn3(SbO8)2,0.012076735267857686
mp-13170,KNaGdNbO5,0.0
mp-566917,Ba3Na2Cr4F20,0.0
mp-704577,Na2Co2(B4O7)3,0.012490670108121549
mp-755731,Ta2Pb2O7,0.027025827272726843
mp-686833,Sr7LaCu4(BiO3)8,0.33114239511364296
mp-15617,Cr5B3,0.0
mp-30513,La3Sn13Rh4,0.0
mp-558772,Rb2ZrS4,0.0
mp-12422,CoHgC4(SeN)4,0.29671450192044624
mp-1019892,La2B8O15,0.022901119933333547
mp-768997,LiBi3O5,0.07901690583333297
mp-672388,ThPb,0.04435541999999959
mp-1024046,YMg3O4,0.33346927187500075
mp-686607,K15Nd7Zr9(PO4)24,0.0071686532864241315
mvc-13795,CaCoO2,0.18506690375000007
mp-561475,V2MoO8,0.029625681022725562
mp-566304,VPbClO3,5.471666669709663e-05
mp-1097277,YScCu2,2.543324214375001
mp-669426,SiO2,0.011622022499999218
mp-541415,KH5S2O9,0.0
mp-154,N2,8.881784197001252e-16
mp-13218,YMg2Cu9,0.0
mp-763483,LiP2WO8,0.05678581402781635
mp-20195,LaMnGe,0.1281925966666666
mp-708015,Na2CuH20C12(N2O3)6,0.018290845336697892
mp-972510,SmTmRh2,0.024768567500000668
mp-5915,TlNO3,0.0
mp-1080608,SrIn3,0.04078896424999856
mp-1076561,Sr4Ca4TiMn7O24,0.07585127961904092
mp-722896,Mg7Si4(HO8)2,0.0951521731992324
mp-6290,NaInP2O7,0.0
mp-744823,CsMnH24(SO10)2,0.004613257239595825
mp-755266,Li4Ti3O8,0.05845598555557618
mp-769001,Li6Sn2B4SO16,0.05843425827585769
mp-758194,Mg4Cu11O15,0.07174320733333328
mp-1077469,Li3GdBi2,0.0
mp-868349,LiFeSiO4,0.07045740678571732
mp-8456,SrAsPt,0.0
mp-1094431,Mg2Zn,0.08010416526666743
mp-776173,Ti3Cu2Sb(PO4)6,0.04842918628472237
mp-505820,NiPS,0.0
mp-13432,Tb2AlCo2,0.0
mp-769366,Nd3SbO7,0.0
mp-1093569,Li2ZnPd,1.4606225775
mp-767050,LiVSiO4,0.0780822054464263
mp-29090,Rb4Au6S5,0.0
mp-3274,NiGePd,0.0
mp-776761,LiCr(SO4)2,0.021750238333338785
mp-504613,Ce3(Si4Ni)2,0.04580020538461582
mp-613306,KAg3Te2,0.16651964562499974
mp-980064,YbErHg2,0.0057391674999998105
mp-865157,Dy2ZnIn,0.0
mp-863014,SmH32C8N4Cl7,0.060546732980768965
mp-1097368,ScTiTc2,3.5899832153125013
mp-581194,CsB5O8,0.0
mp-571437,La20C20Cl13,0.0066239983962246285
mp-777228,Li2MnVP2(HO5)2,0.020153788472208056
mp-634466,HgH12(ClO7)2,0.017959743175285148
mp-1028266,Mg14AlCo,0.14280143062500006
mp-773061,Ba6Ti7Nb9O42,0.0014195235658469585
mp-1074061,Mg9Si5,0.17947078821428653
mp-600014,SiO2,0.013323385416665444
mp-23348,KFeBr3,0.023147552999998044
mp-10138,Y(BRu)4,0.0
mp-27827,Rb2TiCl6,0.0
mp-21344,CuGeO3,0.04461167900000795
mp-30531,Ta2Se8I,0.0
mp-779994,Li4MnSb(WO6)2,0.043189659269227576
mp-770303,Li4Cr3FeO8,0.09001551812500086
mp-1096226,Y2TcPb,2.539918915312501
mp-548609,Tl2Cu(SO3)2,0.11325524821969513
mp-540007,MnPO4,0.002775477916674873
mp-32410,V2P5O16,0.0
mvc-12157,Ti4ZnO8,0.1310397534615415
mp-862620,IrRu3,0.0
mp-735484,CrP2H17N4O9,0.030554781489896318
mp-642804,KCu2P2H3(O4F)2,0.015619131696686496
mp-667320,SeCl4,0.00912064343749952
mp-6192,Ba2DySbO6,0.0
mvc-14222,ZnFeF5,0.0404050121428563
mp-756912,LiZnBO3,0.04604287958332876
mp-8360,RbTe,0.02560945250000035
mp-1036359,CaMg14SiO16,0.1823940921875007
mp-21367,LaIn2Pd,0.0
mp-625474,H2SO4,0.05654345642856917
mp-756935,Li3SbO3,0.009276197071429236
mp-672646,Sm2(InCo3)3,0.13252950500000082
mp-868706,MnS2(NO7)2,0.6240873380263166
mp-32107,Li3Mo2(PO4)3,0.022206115249999492
mp-865956,IrCl3,0.4692500537499997
mp-762763,Li4Ti2Fe3Co3O16,0.07582356913423992
mp-1008226,CrFe2Sn,0.2610020208333328
mp-778220,Li4V3Cr2Fe3O16,0.06028326168153698
mp-560776,Sr3Cu3(PO4)4,0.015115573076927903
mp-27721,AsH3,0.7462332360350001
mvc-14697,SbF5,0.0011506054166670054
mp-1094640,MgGa2,0.048287080000001925
mp-767844,Li12VCo3P4(CO7)4,0.04971380449669383
mp-10078,TbTiGe,0.02093701666666714
mvc-13890,Mg2Bi3O8,0.206364341346152
mp-1096231,LiMg2Cu,1.2431937595833331
mp-743846,K2FeH4(SO5)2,0.0031803861842103487
mp-767458,Tl(WO3)3,0.0
mp-566653,Fe3(TeO3)4,0.0
mp-972205,V2MoOs,0.0
mp-863892,Co(NiO2)2,0.18984783500000013
mp-972472,SnAs3,0.3899998571875001
mp-31644,Li3Cr3(PO4)4,0.024855366602563045
mp-23704,NaAlH4,0.0
mp-722988,TeP4H26(NO5)4,0.03372117481963244
mp-758313,BaZn2As3HO11,0.007075881611121381
mp-541148,KUVO6,0.0
mp-680207,Gd2(FeB)7,0.0
mp-569059,HfI4,0.0
mp-977117,NaTeO3,0.1328441075624962
mp-771904,Li6Mn2P(CO4)4,0.08852370857758451
mp-768250,LiPrPCO7,0.11895947369318005
mp-763612,Li3Mn2(CO3)4,0.08203550041666041
mp-570608,ZrCr2,0.0099178758333327
mp-1096538,Al2NiPt,2.459980240624994
mp-559,YPd3,0.0
mp-1014345,Cr3N4,0.04229304465999738
mp-27436,PaCl5,0.0
mp-850094,LiMn(PO3)4,0.10059956041666672
mp-862870,LiTcO3,0.0
mp-14213,Sr4GeP4,0.0
mp-763921,Co6O7F5,0.11153297784722138
mp-5866,MnCuSb,0.1223766150000012
mp-1099307,KSrMg6,0.2316357288839285
mvc-11965,MgMn2O5,0.30242030265625885
mp-28250,Li2MnBr4,0.013792142857142586
mp-561430,LiLuF4,0.0
mp-1096557,NaMg2In,1.1789305653124995
mp-863868,Li2VF5,0.06843137770832275
mp-29683,Sr2Ru3O10,0.02144548993750117
mp-690794,Sr2HN,0.0
mp-1075744,Mg5Si9,0.2793605934920622
mp-2929,BaTbO3,0.10930898199999994
mp-1408,MgHg,0.0
mp-1026582,SrMg14Mo,0.19178806093750025
mp-31537,LiCoPO4,0.05555621184523751
mp-772353,Li4Cr3O8,0.08440856788888595
mp-1080324,CeSe2,0.4912496479166677
mp-754415,Tb3NbO7,0.013362646022725857
mp-769849,CoO2,0.04935629458333235
mp-42897,NaPrTiNbO6F,0.03550784886364333
mp-568320,Y4Sb3,0.0
mp-850982,LiCo3(OF3)2,0.08602915729166938
mp-1094663,MgGa2,0.07153129916666813
mp-778595,V2O3F,0.03949243250000478
mp-561373,CoO,0.02115692749999987
mp-1079641,TiCrAs,0.019862949166665967
mp-566788,Na2Mn2O3,0.0
mp-891,TaNi3,0.0036533187500031867
mp-9870,K3Ta3(BO6)2,0.0
mp-1028297,Mg14VCr,0.1531589625000005
mp-769932,LiMnBO4,0.06835831540816617
mvc-10476,MgCu2(NiO4)2,0.2387816342948729
mp-29045,La5Ti5O17,0.0056934146296203645
mp-343,PrN,0.0
mp-997571,H6CIN,0.05813385291666684
mp-559252,NaIO3,0.13378866449999371
mp-19050,Ca2MnO4,0.009679361904763262
mp-27916,AgBiSe2,0.0016170158333319586
mp-850223,Fe3OF5,0.038637348888893364
mp-768764,Li2BiBO5,0.05589328805555915
mp-961699,NaMgP,0.63277131388889
mp-579463,Cu2Pb(SeO3)3,0.002071957333330765
mp-565447,ThV4O12,0.0
mp-17196,TiAs2O7,0.0
mp-764301,K2LiVPO6,0.08744545020202388
mvc-1162,BaAlSn4O7,0.3210261334134712
mp-757660,Li2CuCO4,0.10579148812500083
mp-1033116,Mg6AlVO8,0.2295549787500004
mp-29639,Te7Pd20,0.0
mp-11703,KSbS2,0.0
mp-780530,Na2MnPCO7,0.0
mp-777889,Li4Fe(TeO4)3,0.0660351319062471
mp-1094459,Mg5Zn,0.033230086800000384
mp-763379,LiV(PO3)3,0.04823329906291818
mp-1075499,Mg5Si6,0.24192824944444746
mp-1072181,FeSb2,0.18942284333333426
mp-566988,FeMoO4,0.015667407291660496
mp-1027818,TeMo2Se3,0.02190761000000041
mp-19699,KVTeO5,0.0
mvc-3984,Ca2CuSbO6,0.07531983887500003
mp-865044,MgInIr2,0.009506720246710287
mp-1021411,LaMg6Sn,0.12486735437500007
mp-557861,Li2CaTa2O7,0.01925451424602897
mvc-6623,MgCr2CuO7,0.10776821757575394
mp-15821,LiNdGe,0.0
mp-585256,Co(PO3)4,0.06654186672794005
mp-265,TaIr3,0.0
mp-38417,Ba(CeS2)2,0.06036762607142342
mp-1098730,Mg30MnFeO32,0.020940160078124492
mp-1026789,LiMg14Sb,0.04350482354166663
mp-761361,VSnO4,0.015472711666679297
mp-625104,H2CO2,0.54901453
mp-721901,K2B4H8O11,0.0
mp-18130,Nd2Si2O7,0.005667864545456425
mp-31833,Li2Fe3(P2O7)2,0.0
mp-764561,Li4Fe(OF)2,0.09424838222223286
mp-9759,BaPr2PdO5,0.0
mp-556622,Tl2OsCBr2OF3,0.0
mp-9417,Sm(CuO2)2,0.0
mp-780213,Ni3OF5,0.07255107106481429
mp-556463,KGe2BO6,0.0030020293821451105
mp-1031259,CsKMg6O7,0.6143049974999988
mp-9035,NaLuS2,0.0
mp-14589,Hf2Si4Ni3,0.0
mp-1060098,SmS,0.03832270000000016
mp-570272,Tb2Mg3Ni2,0.0002945757142875926
mp-1087498,Ce(AsRh)2,0.0
mp-979951,Yb3U,0.6428288525000001
mp-779923,Fe2O3F,0.11666959531249788
mp-21526,KPb,0.0
mp-1099218,CsMg14BO16,0.3377243461458335
mp-864754,NaIn3,0.003898140000000883
mp-1027512,Te2Mo3W(Se2S)2,0.07789987416666744
mp-773445,NaLi2MnPCO7,0.04270378756410143
mp-567027,Y2(MoO4)3,0.02722636279414914
mp-554581,KSmP2S7,0.0
mp-632694,ScMo3O8,0.1457888095486055
mp-1694,Yb2Ge,0.0
mp-763948,Co3(OF2)2,0.09503401249999843
mp-1037209,YMg30NbO32,0.104508942080078
mp-851287,Co21O40,0.06426806803278584
mp-12648,Ti2Be17,0.0
mp-17367,Mn2SiSe4,0.0
mp-762994,LiMnF4,0.0406819016666562
mvc-5179,Ca2AlCoO5,0.016511983432539346
mp-768235,B2TeO5,0.06201275473958035
mp-761546,LiFeSiO4,0.06840054190475442
mp-616564,RbPbIO6,0.0
mp-15985,Zr3(Cu2Ge)2,0.0
mp-30959,LiHS,0.0
mp-1028040,YMg14Cr,0.08914111750000052
mp-763350,V3O5F,0.017183987777771748
mp-861867,AcI3,0.0
mp-771661,Li3Cr(FeO3)2,0.0009762966666748696
mp-771707,Li2SnBPO7,0.09824666113095047
mp-865804,TaZnRh2,0.0
mp-1079869,K2PtS6,0.3667742940476195
mp-620000,K4V5CuClO15,0.006951568846154999
mp-2012,LiHg,0.0
mp-778510,LiFeF4,0.011789745185194713
mp-540544,U8CrS17,0.0
mp-559977,KNd(PO3)4,0.002150871388895581
mp-977565,NdBiAu2,0.0
mp-861612,CrFe(PO4)2,0.027066402708337368
mp-764076,Li3V3P8O29,0.048830656075584684
mp-569818,Er3Si3Ni,0.0
mp-574239,Tm3AlC,1.7079601755833336
mp-976293,NaCdO3,0.45844183300000196
mp-1038443,HfMg30CdO32,0.11380673277343778
mp-573045,MoSeCl7O,0.011091149214288
mp-768809,Li3Bi(BO3)2,0.07642916687500012
mp-672228,TiAs2,0.2916992541666659
mp-556657,GdPH5CO7,0.10500308274999703
mp-2926,Pr2MgNi2,0.0
mp-1096453,CuPd2Au,2.1873630687500003
mp-23162,ZrCl2,0.0
mp-849600,Li4Fe3Sn3(SbO8)2,0.015907829571447433
mp-1013543,Ca3AsN,1.332554386
mp-764407,Li7VO5F,0.06698757410714595
mp-850496,Li6Mn3Nb(PO4)6,0.06548471925000142
mp-768159,LiSnPCO7,0.04926102613636196
mp-1098446,NaCeMg30O32,0.05173537083096491
mp-1093702,KTl2In,1.026182084961735
mp-560161,ZnCu3H6(ClO3)2,0.048732237083332734
mp-1021300,KMg6Ga,0.19538749437500005
mp-89,Cr,0.4059006050000011
mp-1079245,SmPdPb,0.0
mp-744689,CoH18C6SO10,0.5243115860648135
mp-504619,Fe2W2C,0.20316594586667056
mp-1078328,LaBiS2O,0.2826299702499995
mp-764636,K2Li2CoO4,0.011539771561732692
mp-20384,CeAgAs2,0.0
mp-1019322,Te2W,0.02538069583333602
mp-540671,Ti7Cl16,0.0
mp-631550,CaBiB,1.5329854574074075
mp-1071863,PrMgSn,0.0
mp-866279,CaCdPd2,0.022227438333333183
mp-22605,Cr2CdSe4,0.0
mp-1016212,Sn3H6CNO7,0.3374219920833301
mp-1039382,CaMg2,0.10281035916666624
mp-1099602,Ba3Sr(CuO3)4,0.06879122849999764
mp-1093721,ScHg2Pd,1.8279945275
mp-1073013,Mg2Si3,0.23447413699999986
mp-20290,TbCuPb,0.0
mp-1098281,CsMg6BO7,0.2774496041414123
mp-867111,LiDy2Ru,0.0
mp-1098538,SrMg30CrO32,0.04939125641927156
mvc-3733,CaMnF5,0.003990701428580935
mp-572441,Cs3AuO2,0.0
mvc-4692,Ca(AgO2)2,0.2804524221428579
mp-14338,Cs2Pt3Se4,0.0
mp-763614,LiMn(CO3)2,0.05428689937499698
mp-11441,Hf2Ga3,0.0
mp-1025678,Te6MoW2,0.018477870000000785
mp-734771,PrP2(HO)7,0.0192136300461625
mp-756156,Rb2ZrO3,0.0
mp-782644,LiMn3(BO3)3,0.09208396735675706
mp-756459,Cs3TmO3,0.0
mp-561710,CsSnS3,0.0
mp-570863,CrCoPt2,0.03560111805555621
mp-767860,Li2SiNiO4,0.030728842499999413
mp-761341,TiVO4,0.03002661624998026
mp-771377,Li4AlCr3O8,0.008443018281250936
mp-7954,Nd2O3,0.2494504865000007
mvc-3939,Ca3Si3(WO6)2,0.05738372650000121
mp-624928,KEu(CuTe2)2,0.010341006875000502
mp-779357,V3OF11,0.016158658499993983
mp-5848,ErZrSb,0.0
mp-771282,Li24Ti7Cr5O36,0.012777889722233482
mp-558969,Ho3ReO7,0.045002978939390204
mvc-5015,Mg2SnWO6,0.15525239483333395
mp-1016285,Mg7Cu,0.07478559187500022
mp-1035864,YMg14BO16,0.2588803611006938
mp-863290,Rb5Fe3(SO5)6,0.206674976022728
mp-1033590,NaHfMg6O7,0.22412296658333367
mp-7769,Th2SN2,0.0
mvc-11862,CaCu2(As2O7)2,0.07576653011904888
mp-1098516,RbMg30CrO32,0.0672008385937568
mp-1039605,Ce2Mg,0.047887436944445305
mp-13314,ScTlTe2,0.0
mp-1036470,HfMg14AlO16,0.2031952172421887
mp-1094367,MgTi,0.17003055366666686
mp-1025144,CeGaGe,0.0