mpid,formula,e_hull
mp-19737,LaMnSi,0.0028657549999993037
mp-763151,LiMnCO4,0.02424579553571249
mp-651707,SiO2,0.007820726428569458
mp-862737,LiHgPd2,0.0
mp-767364,Li2Mn2Si2O7,0.0792693649038414
mp-1028100,YMg14Co,0.11504104703124927
mp-1094898,ZrSn,0.20096513083333267
mp-31105,RbBi,0.0
mp-551101,HoBi2IO4,0.0
mp-1099330,CeMg6Ga,0.13284329958333174
mp-976425,Nd2Mg,0.014084825833333259
mp-5924,MgSiO3,0.1152312527500019
mp-703595,Cd13I28,0.033252239967479724
mp-996978,CuAuO2,0.0
mp-3926,NbAg7S6,0.028473226696428718
mp-568841,Np3Te4,0.0
mp-865136,Li2MnPO5,0.07713656833334515
mp-868578,GaFeO3,0.021983735999999254
mp-35612,PuOF,0.10480150833333468
mp-542155,TlNiO3,0.0736496952083332
mp-756048,TbErO3,0.0886693024999996
mp-977200,Na3C,1.056352804375
mp-1095053,ThSnRh,0.0
mvc-5424,Mg(SbO2)2,0.1607829111904744
mp-560466,Na2FeCuF7,0.006417733181818264
mp-1096413,LiCuAg2,1.3928241900000005
mp-557177,Li2Al(BO2)5,0.0
mp-1014297,C3N,1.3549849156550011
mp-6122,Ba2NdSbO6,0.0
mp-6782,Li2ZrTeO6,0.012371226500003552
mp-13026,YbZnPt,0.0
mp-504727,EuBrO,0.0
mp-1079219,UAlIr,0.0
mp-752418,La2Se2O,0.001196183277777152
mp-867191,Sm2TlCd,0.0
mvc-13934,FeN,0.857960555
mp-2940,LuPO4,0.0
mp-567402,CdI2,0.0011134680000000063
mp-558585,Hg3PClO4,0.02406233712963424
mp-866170,TiInRh2,0.0
mp-696308,B3H7CO,0.3575433763483709
mp-614964,Ba2PrCu3O8,0.04470581191964396
mp-20588,ZrCuSiP,0.0
mp-573495,ICl,0.10185018750000084
mp-1039182,Mg2Bi,0.11962917000000005
mp-504776,Ce6P17Pd6,0.04497375163793027
mp-985829,HfS2,0.0
mp-4624,TaBO4,0.0
mp-29525,Rb3BiO3,0.0
mp-8396,CsEuF3,0.0
mvc-1053,Ba(WO2)4,0.7546454919230765
mp-762111,Li2CuPO4,0.09051118031250203
mp-2533,NbO2,0.03177702500000201
mp-761471,Co5O8,0.051555218461544434
mp-19881,Dy3InC,0.0
mp-669455,Ga4Hg11(AsBr4)4,0.0
mp-22975,Rb2TeCl6,0.0
mp-8753,K4HgP2,0.0
mp-776639,Li4Ti3Cr3(FeO8)2,0.03411908986110923
mp-12008,ErCdCu4,0.0
mp-10454,SmTiGe,0.011715249999999957
mp-22482,ErMn12,0.0
mp-554518,EuCO3,0.0
mp-504149,FePO4,0.0014123479166663346
mp-1022583,KMg6Zr,0.18599390500000013
mp-697853,Ba3WO6,0.09901913674999907
mp-989623,SrReN3,0.0
mp-553982,K4In2Si8O21,0.0
mp-780917,Mn6O5F7,0.0465744392361227
mp-1076118,Sr6Ca2Co7CuO20,0.027900013940948654
mp-1019089,KMgAs,0.0
mp-1026846,KMg14Mo,0.23970795937500025
mp-782634,VFe5(PO4)6,0.07748340993057035
mp-1025774,Te2Mo2WSe4,0.05325476500000015
mp-673117,Sn2P3O10,0.16224252137499295
mp-773359,Li2VCoO4,0.050704720520835515
mp-1028193,CaMg14Fe,0.1622204684374997
mp-8790,Ba2CuO3,0.0
mp-767099,Li4Mn7O9F7,0.07160051074074048
mp-20193,DyCo3B2,0.0
mp-3556,Tm2SO2,0.0
mp-1098925,Mg30VNiO32,0.02809843031250025
mp-41219,BaLiPrTeO6,0.020870853437495285
mp-572998,Lu(IO3)3,0.0
mp-555487,SnO2,0.011683535000000413
mp-734944,CoH2(SN)4,0.5032837396160961
mp-761662,Li2Co(NiO3)2,0.06573270340903559
mp-776293,Na4Sb2C4SO16,0.07304410870370237
mp-15684,K2CuAs,0.0
mp-861575,Li3V(BO3)2,0.04919481541666748
mp-11279,TiBe,0.006312609583333462
mp-505168,DyCu(WO4)2,0.033679939687500486
mp-504962,K2Na3InO4,0.0
mp-997034,BaCuO2,0.0
mp-1025056,ThSi2Ru3,0.038853557499990636
mp-705373,Li6Co3P8O29,0.053811454053449566
mp-540246,LiNiPO4,0.031904212946432864
mp-999088,ThCoC2,0.0
mp-774926,EuH4S2NO8,0.0
mp-559928,SiO2,0.026069598333332767
mp-631543,AlInB,1.074197593133334
mp-567485,CaGaAu3,0.0
mvc-12340,Mn4ZnS8,0.0686446442307691
mp-540811,Rb2SbBr6,0.002402616388889723
mvc-5171,TiO2,0.17114497722223554
mp-20898,DyInAg2,0.0
mp-556477,Lu2O3,0.0567165847499993
mp-30641,Y6Fe23,0.009871964827585344
mp-983126,HoTmZn2,0.0
mp-566278,WO3,0.00018357124999823784
mp-1096824,AlAgO2,0.08094351875000337
mp-642031,Sr11Al4In3,0.0
mp-1099905,La2Ti2O5,0.13595552796296673
mp-757715,Tb(BiO2)3,0.03628741343749997
mp-1094442,YMg5,0.03877459000000005
mp-694863,Al2CoO4,0.02217923042856995
mp-760683,Li4Cu(PO3)6,0.04632877732758267
mp-29260,Ti(SeO3)2,0.0
mp-865280,NbAlFe2,0.0
mvc-16440,BaCa4(CuN2)2,0.0
mp-559900,CS3(Br2N)2,0.1169042737739998
mp-7597,NbSe2,0.0
mp-866222,AcSi3,0.0
mp-673128,LiCuPO4,0.13529638392858434
mvc-924,BaZn(FeO2)4,0.10595268178571438
mp-973447,KBaO3,0.5551035019999979
mp-764570,LiFe2(BO3)2,0.04917455676138882
mp-22630,Sc2PbS4,0.00761869000000015
mp-6094,Ca2MgSi2O7,0.022592731874999217
mp-18910,BaV4O9,0.015297742410718131
mp-1023301,CaMg6Ti,0.1856799422916664
mvc-2264,ZnP4WO12,0.14911895708334644
mp-559811,K6U2(Cu4S5)3,0.0
mp-15433,K2Ga2Sb3,0.0
mp-1093650,MnPd2Au,2.130100735833329
mp-767656,Nb4VO12,0.05408872823529265
mvc-12807,CaMnFeO5,0.224022463177084
mp-781619,Li3Mn4(BO3)4,0.037042129239109656
mp-1018637,Tb(CuS)2,0.2892049950000004
mp-1075988,BaSr7Ti6Mn2O24,0.012312342208328886
mp-542009,VPPbO6,0.0
mp-1028069,Mg14MnSb,0.08165907531250037
mvc-6403,Mg(CoO2)2,0.18150847999999967
mp-1093632,NaY2Pb,1.9862883629791672
mp-1093617,Cu2PtAu,2.12952489125
mp-779401,MnH8(SO6)2,0.028281699739128637
mp-773561,Fe4OF7,0.06932526041666343
mp-1035140,LiMg14SbO16,0.08436387236111109
mvc-794,MgCr4O6,0.18467831727272888
mp-11925,RbTa(CuSe2)2,0.0
mp-862989,Pm2AgPt,0.0
mp-19133,YVO4,0.0
mp-651048,Ag9(BiO3)2,0.2530066272941189
mp-1017034,Mg6GaW,0.2816876756250002
mp-571343,Cs(CoSe)2,0.02367940174999905
mp-1097820,MgMn2O4,0.08361737071429776
mp-1093581,ZrCuAu2,2.2253992675000003
mp-757310,ZnP2H14C2(NO)6,0.04415117742021302
mp-768954,Ba2YCl7,0.009044495749999548
mp-565245,Dy2Hf2(MoO4)7,0.0
mp-1040172,KMg30GaO32,0.05758990422851529
mp-763481,Nb2CoO6,0.025883530000019302
mp-14722,NaSrAlF6,0.0
mp-30907,Dy3Co11B4,0.0043166553030271615
mvc-8971,LaMgCrFeO6,0.11249191108334422
mp-25959,LiBi(PO3)4,0.04581580666666429
mp-570613,CdI2,0.0011377691111114085
mp-7825,K2GeF6,0.003505239999999965
mp-1018021,NbCo3,0.012245772499998251
mp-581609,BiP(PbO2)4,0.0002617579464283537
mp-771804,Li2SbAsCO7,0.06440900197915678
mp-554390,SrAl2SiN2O3,0.0
mp-1096225,YSnRu2,3.001764008214286
mp-1022609,Mg6VZn,0.17198845572499974
mp-568381,RbAu(CN)2,0.11794295074999628
mp-20560,CeS,0.3304248474999971
mp-1080614,Cs2Sb2Pt,0.0
mp-1097791,B2(CN2)3,0.29514279663454523
mp-1033651,HfMg14BO16,0.2976807467109408
mp-1039462,Ca2Mg,0.1291564408333341
mp-19714,GdGeRu,0.0
mp-24217,Sc2P3(HO3)3,0.0
mp-861876,LiAc2Si,0.0
mp-4953,CdGeAs2,0.0
mp-1022329,Mg6TiFe,0.2717460387499999
mp-17160,DyPtF7,0.0
mp-777861,Fe10O11F9,0.06954454289582834
mvc-14703,CaAgF5,0.03213500642857081
mp-674999,La2Zr2O7,0.2722122695454452
mp-582399,Pu3Pd5,0.0
mp-867274,Be2CoIr,0.0
mp-694852,K5RbZn4Sn5S17,0.0
mp-559091,SiO2,0.004295305833332819
mvc-6811,Mg(AgO2)2,0.4678810863690472
mp-865158,YbNdHg2,0.0
mp-1033177,Mg6AlFeO8,0.1896026210937496
mp-620609,Ba15(ZrSe3)14,0.0
mp-1080340,CeSe2,0.2280268779166672
mp-976260,LiTm2Au,0.06563194375000059
mp-775500,Li11V12(CuO4)12,0.04905014180723112
mp-764586,Li3Fe4(BO3)4,0.029456457391318306
mvc-1915,Ca2Ti9O13,0.09246071010417012
mp-861716,Li2Fe2(SiO3)3,0.060761184791664036
mp-765886,CoSbO4,0.09287888520833842
mp-560547,KCrF3,0.004660487000001545
mp-1077768,CeAlAu,0.0006589891666681781
mp-779920,Gd2W2O9,0.06624065038456806
mp-721017,Na2Te(H5O4)2,0.01223338309523836
mp-570102,HoSiRu2C,0.0
mp-685613,Ba2PPd2,0.0569485506999996
mp-778677,Li4TiFe3Cu2(PO4)6,0.08640316850000662
mp-1059264,KGe,1.04474456375
mp-1033424,BaMg6NbO8,0.5915836412499997
mp-556655,Li2AlBO4,0.0
mp-556870,MgAl2O4,0.10804392642857152
mp-1025355,ZrGa5Co,0.0
mvc-8986,LaFeMoO6,0.11192866472222283
mp-761821,LiCoPO4,0.04635841160714449
mp-1022209,Mg6FeW,0.3223545351785715
mp-1028313,LiMg14V,0.09032881062499998
mp-611630,CaFeClO2,0.37738067799999797
mp-626024,H2SeO4,0.002451978214284445
mp-675046,Rb28(Mg3In17)3,0.0
mp-721471,CuPH4O5F,0.0
mp-637771,ZrInNi4,0.0006876602777863282
mvc-7607,MgTiAs2O7,0.06896693749999994
mp-24528,CrH8C4(S2N3)2,0.055034180518974914
mp-672993,LiBi2P5O18,0.12124059644230024
mp-4138,Rb2CO3,0.0
mp-30667,Sr8Ga7,0.0
mp-12245,Rb3TiF7,0.0
mp-774160,NiTeO4,0.04263200555554558
mvc-157,Mg(WO2)4,0.32512781999999874
mp-20459,TiPbO3,0.0
mp-775286,Li2Fe3NiO8,0.1317192499776807
mp-863707,KNa2Bi,0.0
mp-1027091,MoW(SeS)2,0.04844684500000085
mp-1018048,LaNiC2,0.0
mp-768417,LaAlO3,0.035042605333334365
mvc-932,BaZnCr4O8,0.4429857194642839
mp-680437,K3GdSi2O7,0.0
mp-540327,Li2Fe(PO4)2,0.0793300479807657
mp-1026586,CsHfMg14,0.2336299384375
mp-770301,Li24Mn5Cr7O36,0.01385021027778066
mp-695979,AlH18(BrO6)3,0.30864046815625024
mp-1022947,Mg6MnMo,0.2884771325000006
mp-10633,TmS2,1.6469077666666685
mp-1020117,MgSiO3,0.009405774499998463
mp-767010,Li2Mn2OF6,0.01840170238636229
mvc-12697,Sr2YTlCo2O7,0.07095963423076945
mvc-5623,Zn2SnIrO6,0.15115611100000148
mp-1079717,Sr2Ti2Sb2OF2,0.0
mp-31980,LiMn(PO3)4,0.0556132537500007
mp-686110,Li(ReO3)5,0.02687665777777859
mp-1099837,K2V2O5,0.16702731645831914
mp-978695,SmFeP,0.09256329666666564
mp-558617,Pr4S3N2,0.0
mp-722890,Li3H6Ir,0.0
mp-7098,Np,0.08065920375000069
mp-10872,HfAlAu2,0.0104096954166657
mp-29026,MnWN2,0.028319632499998807
mp-1032315,Mg6NbCuO8,0.2858046689732188
mp-555190,KUCrO6,0.00020800111110830244
mp-767025,Li2MnO2F,0.08224726749999701
mp-14769,Ba2Zn3(AsO)2,0.0120581937962978
mp-1077970,Fe3Se4,0.17608622214285766
mp-1080142,Co(N2Cl)3,2.5929929607068902
mvc-9084,Al4Si2Sn13(SbO14)2,0.1669954062244896
mp-755570,Li(NiS)2,0.06966383174999713
mp-774319,Li10Ti2Fe3Ni3O16,0.0981638966486047
mp-1094406,YMg2,0.1292323916666671
mp-772102,Li3MnV(PO4)3,0.05339657756246563
mp-30864,Y2Sn5Rh3,0.0
mvc-7664,CaCoNi2O7,0.2545498811237357
mvc-10878,CaMn2O4,0.0
mp-540677,UFeO4,0.02573595208333756
mvc-8417,CaNi2O5,0.3680835410937489
mp-35659,HgPbF6,0.0
mp-1079130,Ba2ZnBi2,0.0
mp-10349,Na2SnTeO6,0.03817510762500565
mp-561491,KNaMg2Si4(O5F)2,0.0
mp-770547,Mn2PO5,0.0
mp-36447,Al2CoO4,0.00012188500000220869
mvc-13301,Sr2YSn2O7,0.2887110415625038
mp-705053,Li2CrP4O13,0.05235494309375355
mp-973613,LiCeO3,0.4655062649999993
mvc-1203,Ba2Bi3O7,0.15615442572916116
mp-631383,MnCrRe,0.7093859250000012
mp-1078898,Gd(BC)2,0.13633463799999926
mvc-9695,Ca(SnO2)2,0.1794210588095293
mp-27725,AuI,0.0
mp-1039467,Ca2Mg,0.017414837500000946
mp-849383,Mn12O7F17,0.0609156027430604
mp-1078281,CeAl4Si2Rh,0.0
mp-859100,Li2CuF5,0.0971647958333488
mp-504968,RbFeCl4,0.0
mp-1080622,KRhF6,0.0
mp-770507,Li4Ti3Mn3(NiO8)2,0.062015870982138566
mp-11572,TaTc,0.0
mp-775016,MnCr(PO4)2,0.024850209791679845
mp-1013541,Sr3SbAs,0.6179244410833338
mp-775381,Li5V3P8O29,0.034608604129615195
mp-762154,LiNiPO4,0.07245933125000459
mp-976763,NiAsO3,1.103941789749996
mp-11638,Eu3(Cu2Sn)4,0.00588475266666766
mp-647194,U2InNi2,0.11764923966666352
mp-1022203,Mg6CdFe,0.2308143075000002
mp-868382,La14Mn13O42,0.00955081420291215
mp-999502,MoPt,0.0
mp-570679,TaI5,0.0
mvc-4415,Ta2O5,0.0
mp-25721,UVO5,0.06475800999997361
mp-24286,ZrH2,0.0
mp-861630,Tc3Ru,0.0
mvc-4147,Mg2TaCuO6,0.14395223304167182
mp-773981,K2Li2NiO4,0.06479018666667358
mp-978083,Pr2ZnAg,0.011898045000000136
mp-22481,KIn4,0.0
mp-758810,LiBi2P3O11,0.07646403122549561
mp-849360,LiV2CrO6,0.10128135037498433
mp-980948,SrCaIn2,0.012917840000000073
mp-1099079,CeMg14Sn,0.06288511546874975
mp-555234,RbSbBrF3,0.0
mp-613839,Tb3(MnGe)4,0.10066363545454582
mp-1093879,ScZnAu2,1.6864427035892864
mp-756175,Zr2Bi2O7,0.05696215113636782
mp-978852,SrGaSnH,0.0
mp-13497,Er2Mg,0.02505580333333324
mp-757794,Li3HfO3,0.0849516089285709
mp-25624,VH12(ClO2)3,0.0
mp-652366,MoPb5O8,0.01152576169641506
mp-1025293,InAsPd5,0.0
mp-1627,Mo2S3,0.0944649394999999
mp-1062804,TiAu2,0.0055424066666667215
mp-31464,Dy5Bi3,0.0
mvc-15989,YWO3,0.4134257799999936
mp-625171,H7ClO3,0.05130877545454382
mp-18330,Sr3ZnRhO6,0.0
mp-541715,Ba3GaP3,0.0
mp-558609,Ce3Ta(ClO2)3,0.0
mp-849399,Mn2OF3,0.06770749020833744
mp-16726,LiB,0.0852080200000005
mvc-3812,Zn2Cu2O5,0.2542349061111109
mp-765847,Co3SbO8,0.08700829427083345
mp-16809,Ho2Si2O7,0.01210080409090608
mvc-14103,Sr8CaCu4(ReO8)3,0.07928409453124008
mvc-12191,Y4(Cu2O5)3,0.22698700205000044
mp-1096674,Li2CaMg,1.2078438971874998
mp-1095425,LiEuSb,0.0
mp-9596,La(BIr)4,0.0
mp-696181,UH12(NO4)2,0.1443545615781625
mp-618,Pd7Se2,0.011717776728396244
mp-763763,Li4Cr3Fe2Co3O16,0.10264856641369667
mp-699331,Li3(WO3)8,0.05941919428573605
mvc-11198,YTiO3,0.30261988199999124
mp-975208,RbRuO3,0.19514302249999813
mp-23586,Hg6S4Br3Cl,0.0013021966071424804
mvc-5769,VZnAsO5,0.0440274320833316
mp-1096767,Fe11MoC4,0.07499674507812415
mp-540990,Na2Li3CoO4,0.0
mp-772348,Li3FeO3,0.08973157357142902
mp-653337,Ba4Yb(CuO3)3,0.0
mp-776041,V2O5,0.034298256785710635
mp-28554,Ca2AsI,0.0
mp-32008,Li4Mn(PO4)2,0.009164065000008216
mp-989579,Rb2LiTlCl6,0.0
mp-610631,LaGeAu,0.0
mp-763803,Li2Mn2F7,0.08302532568181853
mp-777588,Li2FeF4,0.1015769371428572
mp-19499,KY(MoO4)2,0.0
mvc-8002,Zn2Co3O8,0.11871332122975707
mp-707987,CuH8(ClO5)2,0.015977727222228566
mp-30885,YZn5,0.003152639318181549
mp-1021702,Mg6TiSn,0.11257123675000047
mp-1019316,Tc2N,0.0
mp-10326,Zn(ReO4)2,0.0
mp-1035190,Mg14ZnCoO16,0.029566154687500124
mp-27553,Ta2SnO7,0.18441050250001112
mp-773709,Li3Fe(NiO3)2,0.011568582499999813
mp-625957,Ta2H4O7,0.04216417000000039
mp-643954,KCoPH2O5,0.0014111620416681347
mp-337,PuBe13,0.0
mp-771948,Ba3LaCl9,0.018954979423078555
mp-764032,Li3V3P8O29,0.0498541057267472
mvc-685,AlMo(WO4)2,0.030240496057691857
mp-541907,Fe3O4,0.0984006139285789
mp-974411,Re3Tc,0.0
mp-764378,LiCo3Sb(PO4)6,0.08384406294644807
mp-768813,Rb4SiO4,0.0
mp-19345,ErMn2O5,0.0
mp-22158,TbCoC,0.0
mp-705026,Li4Fe(PO4)2,0.008475026666667773
mp-21129,Sr2Cu2O5,0.0
mp-23808,KScBP2HO9,0.0
mvc-10895,Mg3Mn2(SiO4)3,0.11255638910417076
mp-984873,Al3Fe,0.08329404225000038
mp-1025905,Mo2WSe6,0.0008826261111103406
mp-10402,TiTl2F6,0.0
mp-768083,Li5La3Nb14O42,0.08571472757812515
mp-14089,TlCuS2,0.0011311034114589447
mp-626529,H7NO6,0.03727673625000083
mp-653840,KCu7TeS5ClO24,0.0
mp-566678,Rb2Mo3SO13,0.0
mp-1025925,Mo3(SeS2)2,0.012451676111110643
mp-27410,Sn4P3,0.0
mp-559254,Rb2U3(IO5)4,0.0
mp-2064,RbF,0.09977794500000003
mp-1021159,BaLaMg6,0.0954436855397729
mp-1016931,VZnO3,0.5418481890000004
mp-569344,Zr(CoSi)2,0.0
mp-756795,Rb3PbO3,0.10513385303571354
mp-764756,Li6MnV3(PO4)6,0.054959686500012594
mp-765348,V5F11,0.07528438312500008
mp-30040,BaCdSb2,0.005353875625000004
mp-985298,Ce2HfS5,0.0
mp-540830,OsF5,0.0
mp-6949,InF3,0.0
mp-774203,Cr2WO6,0.0
mp-25767,CeMn2(GeO3)4,0.0
mp-1094377,Mg2Ti,0.19040494055556054
mp-13374,LaTmO3,0.02055026962499973
mp-1020641,Rb2Ca2(SiO3)3,0.0
mp-1034697,CeMg14BO16,0.3154617939437472
mp-697913,HfP2(H3O5)2,0.01733874855262041
mp-1096873,Ca2Mn2O5,0.1377058933333135
mvc-4405,Y(WO2)2,0.7699620446428651
mp-567320,La5C2I9,0.012054979140621924
mp-1035669,KMg14SbO16,0.1989025768750005
mp-778695,Li3Co3NiO8,0.07215044333333598
mp-567141,Ca5W(N2O)2,0.02302785794507312
mp-1078353,MnPb2WO6,0.031281664666677145
mp-11486,Y2(Al3Co)3,0.0
mp-1099096,CeMg14Cd,0.054197717187500105
mp-865924,LiZrAu2,0.0
mp-766079,Sr8Cu8O17,0.022221163484814174
mp-558647,Cu9Se4(Cl3O7)2,0.0024079278787807468
mp-778776,Li32Mn3Cr13O48,0.017569434791667504
mp-28550,Hf2Ag3F14,0.0
mp-11020,GaAgO2,0.0
mp-20408,InGaTe2,0.03864401986842125
mp-1080055,NpH3,0.026631832500000563
mp-975195,RbAc3,0.3791329443750002
mp-753683,Sn2OF2,0.04409298200000755
mp-864747,HoMgTl2,0.0
mp-1097185,LiZn2Co,1.5919975449999997
mp-1027107,TeMoWSe2S,0.0784623316666675
mp-778920,Li4Mn3Fe(BO3)4,0.005195996041667428
mp-561447,K3AlB8O15,0.0
mp-3925,Co2CuS4,0.0
mp-1027959,Mg14TiZn,0.06750397062500002
mp-2509,ThRh3,0.0
mp-8743,HoCoSi2,0.0
mp-766756,Mn2CrO4,0.012740121071434627
mp-22575,Sc3As2,0.011408374749999341
mp-24161,TiH2,0.0019188899999997844
mp-777183,TiMn3Cr2(PO4)6,0.07863476694444671
mp-779405,Li3V4(OF3)3,0.08173368096492163
mp-866383,Fe2C4Cl2O9,3.3582820323529425
mp-1030927,KMg6CO8,0.8240654413671846
mvc-5438,MgTiAsO5,0.2706070151562532
mp-542480,Na9Co2O7,0.013232548888897357
mp-637384,Cs2KVF6,0.0
mp-10835,RbSm2CuS4,0.0
mp-756030,GdTmO3,0.0690261576250002
mp-775157,Li6MnV3(PO4)6,0.0699033503750135
mp-652180,AuC5(SCl)4,0.8110992432936506
mp-6205,Ba2Ho(CuO2)4,0.0011355083055555324
mp-684690,Sc2Se3,0.0
mvc-7469,BiTeO5,0.32671241473214074
mp-570022,Ho5Co2Bi,0.0
mp-776225,Hf2N2O,0.0025880904999961984
mp-775133,Li4Ti3Fe3(WO8)2,0.03235156627976288
mp-1027837,Mg14ZrMo,0.16437251781249973
mp-565565,K2VPO6,0.0
mp-849520,LiCo3(SiO4)2,0.0754698984523845
mp-1080199,V3N4,0.17361578466000085
mp-764005,Li4TiV3O8,0.014856949843755627
mp-557894,SiO2,0.015756866458332297
mp-1025222,ZnPd5Se,0.0
mp-560927,Y4Al2O9,0.014209125900002563
mp-640024,HfInNi2,0.02412182909374749
mp-1035662,BaMg14FeO16,0.18014294148065613
mp-763621,LiFe(PO3)3,0.067220896071432
mp-1039822,BaMg30SiO32,0.15988541567187653
mvc-10117,P2W2O9,0.044742651089746836
mp-757806,LiSn(PO3)4,0.051892276643507707
mp-764349,Li3MnO2F,0.10375248761904654
mp-861657,Li2PrAl,0.004116987500000224
mp-780865,Co3OF5,0.04324260374999955
mp-1009134,MnFe,0.0934651750000004
mvc-8639,MgBi2(PO5)2,0.4535083434583331
mp-985297,Ag3Rh,0.2287450200000003
mp-770860,Li4Mn2Fe3P6WO24,0.0822255660625002
mp-557089,Rb2Zn3(P2O7)2,0.0
mp-767636,LiMn2O3F,0.07374244901785154
mp-560920,SiO2,0.011521583541666658
mp-707732,Na4ZnP6(HO2)12,0.06306556989361313
mp-1031217,SrMg6TiO8,0.2911469712500025
mp-772861,BaSr2I6,0.031986727083332944
mp-662547,PSeCl9,0.0
mp-1096582,Sc2CuHg,2.3387542925
mp-772090,Li4Ti9O20,0.028384333636378045
mp-1032050,Mg6NbZnO8,0.26989534675000026
mp-11658,Cu2SnSe3,0.0
mp-979429,YHoCd2,0.002616729999999734
mp-1039208,Ca2Zn,0.14616456277777726
mp-510528,GdCuSe2,0.0
mp-34891,Li2Mn15O32,0.09535203918367774
mp-559978,CuAs2S8N8(OF7)4,0.2151346880580398
mp-14030,Na2LiY(Si2O5)3,0.0
mp-6814,AgCNO,0.7277040491966664
mp-769395,Ho3ReO7,0.06600095030302455
mp-978016,LaSn2Pd,0.01696110599359013
mp-777020,LiFeF4,0.0977289343518608
mp-4597,Y2B5Pd14,0.0317942677056271
mp-866274,CeCdHg2,0.0
mp-763317,LiVGeO5,0.050833909375016084
mp-707040,CaAl2H16N9,0.1814186888560272
mp-4816,LaGaS3,0.0
mp-570884,TeI4,0.0
mp-775713,NbNi3(PO4)4,0.08412739471353259
mp-1084760,CaBO3,0.09947516062500128
mp-677551,Na6MgAl4Si13O36,0.08098130269270687
mp-777360,Li13V24O52,0.08506585970035907
mvc-8138,Ti(GeO3)2,0.02797009027777797
mp-979291,TaZnOs2,0.0
mp-558358,Ca(B3O5)2,0.0
mvc-14163,CaMoF5,0.009558489285713456
mp-30085,ThZr2H7,0.08165702878570524
mp-5263,Ca4P2O9,0.0
mp-779367,Li3MnV(PO4)3,0.071388296062465
mvc-415,Mg2Nb2CrO8,0.029613322222219907
mp-705729,Mn9(Cu3O10)2,0.04391222307142684
mp-866142,TiGaIr2,0.0
mp-21559,Zr2Te,0.008533642658728802
mp-1075786,Mg3Si2,0.1363442861666666
mp-9919,LiZnSb,0.0
mp-982015,LaDyMg2,0.0073752478124999845
mp-755245,LiCuPO4,0.07159500892858528
mp-864780,PaAlAu2,0.0
mp-504406,Cr4P9O32,0.09730280498611243
mp-767864,Li3VPCO7,0.0875282329567284
mp-769459,Na5Ni2P2(CO7)2,0.012217470625001779
mp-768821,Li2Bi2B2O7,0.054340126987180604
mp-633143,H8W3Se(NO6)2,0.04170728823238612
mp-1095688,YNiSn,0.0001906158333300212
mp-28967,Ba(PdS2)2,0.0
mp-1077547,TmNi4Au,0.0
mp-540783,OsO4,0.0
mp-779327,Li32Mn11Cr5O48,0.007731886979162717
mp-699488,CsTiH24(SO10)2,0.023814637669840263
mp-21770,Cu4As2O9,0.006407512500000046
mp-1074148,Mg4Si7,0.2312863623737393
mp-15004,Ca3ZrSi2O9,0.0
mp-29746,Cd4P2Cl3,0.0
mp-554926,Sr2VO4,0.039556946428571216
mp-777744,Ba2YF7,0.002482214000000482
mp-865112,NaPrTl2,0.0
mp-556516,Tl2S,0.0005723051851855843
mp-985805,AlAg2,0.0
mp-10873,ScAlAu2,0.0
mp-14353,BaNaNd(GeO3)3,0.0
mp-20433,Ti3In4,0.032654275000002286
mp-144,Ho,0.0
mp-1095955,Ta2OsRh,4.172651017083335
mvc-9650,CaPr(FeO3)2,0.0
mp-4170,NaTaO3,0.014438663999998269
mp-1075904,EuFeO3,0.04179732449999919
mp-1026638,HfMg14Sn,0.04794562343750064
mp-1022729,Na2H6Ir,0.1572958821585182
mp-972981,K,0.008666759999999885
mp-3951,Ti2CuS4,0.0
mp-4990,MnSnRh2,0.0
mp-1265,MgO,0.0
mp-15520,TbZn(BO2)5,0.011444536360297521
mp-779108,Be2P2O7,0.018530928749998843
mp-777435,MnVP2(O4F)2,0.007933243293656744
mp-761496,LiNi4(PO4)3,0.0709007177499883
mp-1075655,Mg5Si9,0.2522344717857141
mp-1100190,LiMg,0.041635046666666835
mp-15056,NaZr2TiF11,0.005752385935181792
mvc-904,TiZnP2O7,0.20298960285984705
mp-760136,Li4TiCu3(PO4)4,0.09663889580357488
mp-17410,CsEr3Se5,0.0
mp-763138,Co3OF5,0.04276435263888878
mp-15746,Zr2Cr30P19,0.01869534007353124
mp-1017330,Mg6SiBi,0.1306260838750002
mp-773547,Li3Fe2OF5,0.08641225863636492
mp-1026426,Mg14BC,0.4671711204296876
mp-541114,Sr2RhF7,0.0
mp-1037135,Mg30CuCO32,0.14107159023437266