mpid,formula,e_hull
mp-1063016,SmPd2,0.3082147696969679
mp-565341,SrMn(SeO3)2,0.0
mp-850935,CoOF,0.11173621624999974
mp-1020162,Na4Mg3P4O15,0.0
mp-764451,Li3Fe4(BO3)4,0.029498114782620988
mp-20295,YbEuSi4N7,0.0
mp-980649,TiNbRu2,0.010068070000000873
mp-695373,Na4Al11Si13Ag7O48,0.12598709777107953
mp-1094098,NaGaTe2,0.0
mp-680314,Rb14Si6Ge4O17,0.0
mp-699314,Li2V(PO4)2,0.04525799903847272
mp-29376,Na5InS4,0.0
mp-768315,Mg(IO3)2,0.05115536916666752
mp-621945,La2Ge2O7,0.002811592727272938
mp-1032215,Mg6FeBiO8,0.30630540028645825
mvc-12916,V6Zn(FeO6)4,0.1151733950428584
mp-1093735,CaYTl2,1.9775761425
mp-625953,Co(HO)2,0.0461277414999941
mp-568370,La3(SiNi)4,0.0004355127272734904
mp-849508,Li5Mn6(BO3)6,0.03748105911902755
mp-1095908,Ca2CuPd,1.5123529383750005
mp-2784,Na2Te,0.0
mp-1012740,H6RuCI3N,0.16280420885416635
mp-24502,ZnH2(SO4)2,0.0
mp-607291,Cu3BiS3,0.015036571249999575
mp-1040364,Mg30TiNbO32,0.08423943027343839
mp-777709,Li32Ti13Cr3O48,0.0065984476041789355
mp-10933,Nd2TeS2,0.0
mp-28320,Pt3I8,0.0
mp-978567,SiAs3,0.5767129003125007
mp-756599,La2ZnO4,0.032115384285715365
mp-974035,Pb3I2(Cl2O3)2,0.007795018166667056
mp-560037,Rb2NaBiF6,0.0
mp-14432,GaTe4(MoSe)4,0.012815123653845184
mp-1084801,BaErMn2O5,0.3470756735138876
mp-387,CeSb,0.0
mp-775775,Li3V4FeO8,0.09738658878906216
mp-21053,U(FeP3)4,0.0
mp-23828,Sr7(H6Br)2,0.0
mp-28790,Al13(TlS7)3,0.0008158982432444617
mp-259,AlMo3,0.0
mp-570848,HgCN2,0.2966310481850005
mp-555707,S4N2O3F,0.105005620874004
mp-767884,Li3MnPCO7,0.06304605211537329
mp-31842,Li3Fe3(PO4)4,0.009143164230770221
mp-867857,SmH3,0.0
mp-580886,ZrIN,0.029719405000000695
mp-2482,CaC2,0.029143025000009537
mp-974400,Kr,0.0017301899999999995
mp-1040290,KNaMg30O31,0.08190443654762093
mp-28917,Ba2Ti13O22,0.0
mp-762706,Li5Mn4P4O16F,0.07754647808333548
mp-675286,Ca3UN4,0.0
mp-1078684,ErCdGa,0.0
mvc-16242,AlFePO5,0.0
mp-774483,Zr2(PO4)3,0.011846178345585656
mp-567224,Mg(SiB6)2,0.0
mp-1026649,NaMg14Bi,0.0733652718750002
mvc-8160,CaTi(GeO3)2,0.10906923729999908
mp-782691,LiFe5(OF2)4,0.06846467922839228
mp-767446,CoP2O7,0.0688673689375161
mp-22595,UAsSe,0.0
mp-13128,Cu2As2O7,0.012960267348487877
mp-761667,NaV6O15,0.029749133181816486
mp-776016,K2O,0.020290578750000062
mp-630519,ZrVF6,6.236249999957978e-06
mp-1074863,Mg7Si4,0.2692046726767683
mp-866131,Lu2TlAg,0.0
mp-690929,Cs4MgZr3(PO4)6,0.0
mp-12263,LiAuF4,0.004232032500000038
mp-983565,CuBSe2,0.0
mp-648519,ThMn4(CuO4)3,0.034423283593755016
mp-697772,Li3V2P5O18,0.07644996872026155
mp-554371,CaSiBHO5,0.00143871129629769
mp-12233,ZnB4O7,0.0
mp-16254,BaCuP,0.0
mp-1022073,Mg6CoNi,0.20171613546875025
mp-558557,BaLa4Cu5O12,0.03036168318181787
mp-8014,RbRuF6,0.0
mp-13056,Ba2LaTaO6,0.00041470899999573874
mp-1080762,NpGa4,0.0
mp-1096543,K2RbNa,0.5459619940625002
mp-1077439,FeSn2,0.01829093111111124
mp-28486,Cs2Ni3S4,0.0
mp-1079725,Er6CoTe2,0.0
mp-607987,CsInI4,0.0
mp-1096152,HfBe2Pt,3.592522315999997
mp-777464,Li4Ti5Cr3O16,0.02736077977763607
mp-764023,Co6O5F7,0.12436252076388946
mp-17097,SrIrO3,0.018729159999999467
mp-1030156,Te4Mo3WSe4,0.04833524250000032
mp-850886,Fe4O5F3,0.08553811348958718
mp-753853,U4BiO10,0.06834386699999939
mp-697540,K3GeH2NO3,0.0
mp-566285,FeF3,0.004189171249999291
mp-764075,Li3V3P8O29,0.056809446773259616
mp-20034,CaPb,0.0
mp-13854,B3Ru2,0.0
mp-554014,Li2Cu5(Si2O7)2,0.08013867659999717
mp-560085,Bi24Cl10O31,0.0
mp-600065,SiO2,0.023921897847218432
mp-867120,TaMn2Al,0.0
mp-2123,Nb3Au2,0.0
mp-984788,Ba4Er(RuO4)3,0.0
mp-780826,LiFeF3,0.05700645649999636
mp-1026483,NaMg14Ti,0.08238435677083356
mp-680422,CBr4,0.20908590574999986
mp-766869,V2Bi24O41,0.006773367649174134
mp-8836,CaAlF5,0.0
mp-24608,K2AlH2OF5,0.004060545681815242
mp-2630,SrC2,0.029318638333334587
mp-973841,LiHo2Al,0.00989103499999988
mvc-8242,CaSn2O5,0.2726060474999956
mp-776444,KLiTi2(PO5)2,0.017651311145831627
mp-1032565,Mg6ZnBiO8,0.29735462057291784
mvc-14915,CaTi4O8,0.06583992423077945
mp-777420,Fe2Ni3Sb(PO4)6,0.08690365189236005
mp-772862,BaSr2I6,0.030285727638888805
mp-22013,LaTiO3,0.025677358750000327
mp-676541,Na4Cr13Se23,0.041889975375009485
mp-849252,Li2VF5,0.07893167239582244
mp-19550,AgMo2P3O13,0.0
mp-756898,TmTaO4,0.017146922500000272
mp-781735,Na2FeO3,0.04700050916666676
mvc-11038,SbO2,1.7187574250000288
mp-556767,ClF3,0.007188701249999595
mp-504620,MgMo2O7,0.0
mp-29145,H3N,0.0
mp-1079375,RbBe2BO3F2,0.00032137777777929705
mp-760418,Ba2SrI6,0.018421651111110826
mp-505143,Pu(SiIr)2,0.12292523161538328
mp-1074466,Mg4Si3,0.2046829792857144
mp-613384,CsIO3,1.976984502000001
mp-19534,Tb2(MoO4)3,0.0
mp-29779,Lu3Ni2Ge3,0.0
mp-2481,Mg2Cu,0.0
mp-554822,CsSb(PO4)2,0.0
mvc-98,Zn(CoS2)2,0.028144689642857657
mp-569825,Dy10Si17,0.0
mp-754359,Y6TeO12,0.0
mp-1029190,Te2MoW3(Se2S)2,0.06327494499999986
mp-766916,Li2VF7,0.10524629700000254
mp-772425,Li3V(SO4)3,0.07855107861841938
mp-743675,Ca2Fe2Si5HO15,0.006926392724984076
mp-1097379,TiNb2Mo,4.270337450555556
mvc-3780,Al2Ni2O7,0.2546801784848496
mp-976592,K3Ag,0.11114397218749984
mp-1076223,Eu2Ni2O5,0.02035796888889152
mp-1094283,ZrSn,0.34537280583333274
mp-772009,Li3Nb4NiO12,0.08992422212498319
mp-542374,KSn,0.0
mp-579058,Cs4Tc6S13,0.0
mvc-16446,Ca3CuRhO6,0.025465228181818844
mp-770252,CaNiO3,0.05299456637499933
mp-1098946,Mg30VSnO32,0.0642990399218748
mp-979713,YHgPd2,0.0173295329166665
mp-763247,LiVSiO5,0.07007471062500059
mp-778715,LiMn2F5,0.08673763140625024
mp-775287,Fe10OF19,0.013944093666669488
mp-1079500,CaNiBN,0.0
mp-1098619,Mg30MnAlO32,0.05019955171125101
mp-1096592,Hf2ZnFe,3.330055294375
mp-744081,K6W2N4O3,0.26483856480702084
mp-1073862,MgSi,0.15521863555555493
mp-762840,Li3CrP2HO8,0.047449526166666985
mp-556836,Na2EuC(OF)3,0.0
mp-757777,LiSiBi3O7,0.041670045104168274
mp-15840,BaBPO5,1.0049999961125877e-06
mp-23488,Tl5Se2I,0.0
mp-569494,SmMg2Ni9,0.0
mvc-12304,V2P2O9,0.03550027826921287
mp-1017507,TmAu,0.0
mp-601210,H5C2NO4,0.0895352946874981
mp-569493,ErCo3,0.0
mp-10004,Mo3P,0.0
mp-782653,Ca2CrO4,0.039096604285710164
mvc-9875,LaZnCrSbO6,0.1893488176041717
mp-696797,HSeNO4,1.0227407086763485
mp-774083,Li2Ti2VO6,0.0745741186363631
mp-1078546,Si(NF3)2,1.0263135258733342
mp-721,TbCd,0.0
mp-669521,Nb3Te4ClO15,0.0
mp-23093,Sr2NdBiO6,0.0
mp-755588,Ho2TeO6,0.06111880833333139
mp-1018643,YBPd3,0.09299051836363592
mp-510633,Pb2CBr2O3,0.000860677812499766
mp-773345,VCrO5,0.08093615620535388
mp-758594,Li(Fe3P2)2,0.015486779136364426
mp-623814,Hf8FeTe6,0.0
mp-1096210,NaYPb2,1.7399859051666668
mp-557953,Hg3TeO6,0.06305494537500067
mp-866637,KPPdS4,0.0
mp-571655,B4C,0.8648815241410253
mp-850769,Li9V14O35,0.05152682775865003
mp-686371,Na11La7Th2Ti20O60,0.018512473735000867
mp-696666,H4NClO2,0.3865334589435436
mp-18907,Ca2MnAlO5,0.00748130801587532
mp-780043,Cu3Sb(PO4)4,0.0671929857291822
mvc-2285,Mg2Co9O13,0.14525248104165198
mp-541355,Rb2(TcSe2)3,0.0
mp-21475,SmInCu2,0.0
mp-1019110,SmPbAu,0.03234019666666743
mp-773543,Mn2O3F,0.05130510895833673
mp-1040324,KLaMg30O32,0.09145694328125042
mp-34036,NbBi3O7,0.1295148045454546
mp-680722,As2Pb14Cl4O17,0.0
mp-775326,Li2Ti3NiO8,0.0
mp-764736,V4O5F7,0.012723795624999923
mp-15902,Li2Ca2Ta3O10,0.037576052274513216
mp-760103,Sr15Pd5O24,0.015156993825759638
mp-623087,Re3(TeBr)7,0.013858604782293504
mp-30171,Ho4Ge9Ir13,0.0
mp-29803,SiH,0.025029495312499428
mp-1016655,HfMg6Mo,0.2785844531250006
mp-770102,Li3Al2VO6,0.027243935416666254
mp-570598,SrSi7N10,0.011164100416651834
mp-761676,Li2Co3SbO8,0.00963463017857258
mp-5151,Cd4GeS6,0.01402393437499905
mp-689929,LiV(PO4)2,0.08649905062500629
mp-29048,Sr(BiO2)2,0.0
mp-30440,Be22Mo,0.02055539239130333
mp-971906,TmBi3,0.12565668000000052
mp-760385,In2Ag,0.11349595499999987
mp-985582,Li6PS5I,0.01959283288461133
mp-744380,Ca9LaTi4Mn6O30,0.009768582166662656
mp-556961,SiO2,0.005157103749999337
mp-18789,TlCo(CO)4,0.3562619528333357
mp-699146,Mg3AlFe(SiO4)3,0.18533748665625005
mp-770065,Gd2TiO5,0.05008039093750405
mp-1033938,CsKMg14O15,0.3614016978225809
mp-1025369,Tm2Mo2C3,0.0
mp-691043,Ba10Pr5Nb(Sn2O15)2,0.04370482468750048
mp-1022075,HfMg6Cu,0.15909912468749976
mp-1021313,KHfMg6,0.23423128062500045
mp-1038510,Mg30BWO32,0.1538461275130203
mp-1080104,Pr(BIr)2,0.0
mp-1032277,SrMg6CuO8,0.21453622093750369
mp-20676,ErNiGe,0.0
mp-766865,LiMn2O3F,0.08468275044642137
mp-20257,AsPd3Pb2,0.0
mvc-4594,ZnSb2O5,0.2686977257812497
mp-769439,Li5Mn6(BO3)6,0.02952884997617033
mp-4664,MnGeRh2,0.0
mp-24578,MgH10(SeO5)2,0.001876335652173821
mvc-1255,YSn3Se2ClO8,0.42137124226562417
mp-853165,Li5CoOF5,0.044236298750002234
mp-696200,CuH20C2S3(NO)8,0.1540222746070823
mp-697730,Mn3(PO4)4,0.09219888190217597
mp-29556,Tl2WCl6,0.0
mp-779998,Li2FeO2F,0.09920999416666644
mp-1074832,Mg7Si4,0.25209645631313204
mp-12707,Zr2Np,0.5451871537499979
mp-773949,Mn2CrO4,0.009621332857141951
mp-764206,NaV3O8,0.0
mp-1072544,Si,0.22242479166666665
mp-984724,Ba2TlZn,0.0
mp-756732,Rb3Sn4Au,0.11176522187499938
mp-767807,Mn(CoO2)2,0.040738457619053925
mp-565379,KCa10V7O28,0.0
mp-570788,Yb3Ni7B2,0.0
mp-5267,Np(Al2Cu)4,0.04428722030769183
mp-1068052,Sm(MgSb)2,0.07698064300000063
mp-783911,LiV2OF5,0.06113127342592861
mp-1035531,Mg14FeBO16,0.2514881626562504
mp-1002221,ErH,0.19128229624999893
mp-530294,Sm2Zr2O7,0.015371667613635509
mp-849694,Li5(FeO2)4,0.07518282029411782
mp-28393,P3Se4I,0.008094323544922233
mp-774977,Cr2TeO6,0.0
mvc-16724,LiTi2O4,0.06759873928569783
mp-1080332,CeSe2,0.5473176445833348
mp-554191,Na2UO4,0.0
mp-570838,CdHg4(AsI2)2,0.0
mvc-9082,LaMgFeSnO6,0.12299968424999985
mp-554440,CuSeO3,0.02538519625000024
mp-14790,Ge(Te2As)2,0.008447094285714662
mp-22323,In2O3,0.029491442000000312
mp-863669,Pm2CuPt,0.0
mp-1030514,Te2Mo3W(Se2S)2,0.042439293333333517
mp-3688,Er2Sn2O7,0.0
mp-777242,LiFe2OF5,0.08514729040123559
mp-1026391,Mg14TiC,0.4155762700000003
mp-541694,K2Na3SiP3,0.0
mp-20633,PbO2,0.007955829166667705
mp-1033928,KMg14SiO16,0.2196444955078132
mp-772397,Li5WNO4,0.04908544750000399
mp-1077948,Te4Pt3,0.6233182814285714
mp-1022082,Mg6VCo,0.2899675305208338
mp-631405,ZrTcCl,1.5989527495833329
mp-766999,LiMnVP2(HO5)2,0.032568511470603134
mp-675778,NaY2F7,0.033402148250003094
mp-18625,KPSe6,0.0
mp-35746,Sr(YS2)2,0.07222327178571586
mp-763997,Mn6O5F7,0.07121745590277495
mp-531125,Ag7(PbO3)3,0.002409925087716757
mp-555888,C2S(OF)4,0.2107168667045416
mp-763029,FeOF,0.09774834944444333
mp-767003,LiMn2O2F3,0.04561223156250094
mp-720197,K4GeH4N2O3,0.0
mp-675060,In8Cu7Se16,0.06400093569472487
mvc-4367,Mg2TaNiO6,0.12439497922916765
mvc-12773,Y2(CuO2)3,0.32895711090908364
mp-774406,Cr3Ni(PO4)6,0.08577610448529249
mp-570734,Pr3Pt4,0.014512066428571838
mp-15081,Sm2Se3,0.0
mvc-5791,Mg2CoIrO6,0.06175579043750101
mp-683938,Rh8C20O19,0.2384502719148962
mp-1079914,HfSb,0.0
mp-625578,H5BrO2,0.012483097187499405
mp-1094243,MgSn2,0.08678055833333342
mp-1096343,VRe2Si,4.1301097209999975
mp-1095804,NbZnNi2,2.7658699117500016
mp-19239,Mg6MnO8,0.0
mp-764896,Li7Fe8(BO3)8,0.02214504159574293
mp-27782,XeIF7,0.0
mp-729560,Sr20P12Br(O16F)3,0.005059120952379814
mp-780817,FeOF,0.0615098933333309
mp-981132,TbGeO3,0.6179720684687515
mp-697676,H2Pb4SO8,0.0012745254999932953
mp-18321,Hg2Te2O7,0.022540798409103502
mp-762172,Co2Ni3Sb(PO4)6,0.096430752586806
mp-780832,Li2Co4O3F8,0.07450196419117194
mp-707039,ZnH20S2(NO7)2,0.16694146653846165
mp-1022451,SrMg6Co,0.23539399350446424
mp-1018704,GdAlZn,0.009284489166666354
mp-570786,KNa2,0.0
mp-20965,GdCd2,0.0
mp-17777,Sr5As3O12F,0.0
mp-9245,LiGaPdF6,0.006996693086418482
mp-769868,Li3BiH8O7,0.04523242388158
mvc-16615,YTi2O4,0.2729593614285708
mp-770032,Li2CrFeO4,0.002349416041675489
mp-22400,MnCu2SnSe4,0.0
mp-1035124,LiMg14CO16,0.2644388002148439
mp-28855,Cd4OF6,0.0
mp-764385,Li4Fe3Cu3(SbO8)2,0.026489349642855764
mp-754897,BaTl2O4,0.0
mp-1094637,MgGa,0.07195403937499956
mp-773519,Li4Mn3Fe(PO4)4,0.001035825357107889
mp-554199,RbSnIO6,0.0
mvc-9857,LaMgCrWO6,0.1513279214583303
mp-2203,YB6,0.030011104285713405
mp-761298,LiVPO4,0.030026695735929643
mp-776074,CaGeO3,0.029972911333337567
mp-868627,CoF3,0.16182865833333349
mp-570108,ThC2,0.3225948766666669
mp-24447,FeCoH18(NCl)6,0.0
mp-745104,Gd2(MoO4)3,0.0005770836764664723
mvc-15166,Y8Cu3(GeSe7)3,0.05610447403348395
mp-20494,LaAs,0.367331815
mp-23092,Ba2TaBiO6,0.0002795980000005472
mp-761991,Li3Fe3SiO8,0.08342715533333322
mp-765914,LiV(OF)2,0.09913275125001596
mp-1079910,SiTc,0.0
mp-764810,LiMnF4,0.0561166458333231
mp-636827,TiO2,0.3038767329166792
mp-983063,PmSmHg2,0.0
mp-571518,WCl6,0.0
mp-778417,Fe6O5F7,0.08659761833333679
mp-781634,HfZrO4,0.058024013750001664
mp-8212,Cd(PtO2)3,0.0
mp-561384,ZrF4,0.0
mp-775389,Fe10O19F,0.11854263539583255
mp-569900,Sc3Zn17,0.0
mp-1038136,CaMg30VO32,0.018311114023439327
mp-765970,Ti3Sn7O20,0.03678643791666847
mp-560114,Er3O2F5,0.0
mp-850500,Mn11Fe(PO4)12,0.005526624305566941
mp-762622,Li3Fe(PO4)2,0.08494200437500066
mp-764159,V2OF5,0.0016818571874992472
mp-28212,Nb4O5,0.02437513555555526
mp-753621,Li5SbS,0.06473298357142854
mp-27661,U2Cl5O2,0.0
mp-775325,Li6MnV3(PO4)6,0.02534588737501231
mp-763499,Li2V(CO3)3,0.062365392666674964
mp-28668,B9H11N4,0.4315946160069428
mp-1061823,CaC2,4.2152744050000095
mp-2431,ErTl3,0.0
mp-772003,Li5Co7O12,0.09555038999999964
mp-978502,SmAs3,0.2366760699999997
mp-1037774,YMg30NiO32,0.05912792312500147
mp-976949,Lu3In,0.0039035362500001725
mp-676273,Pr2SbO2,0.008378530333332357
mvc-10304,CaCu3P3O13,0.04628749481248473
mp-705061,UAg2(WO5)2,0.013277700000001502
mp-1097929,HfMg,0.29177841000000004
mp-774456,InH11S2O13,0.023165482453713082
mp-1096264,ZrCu2Ag,2.413274975
mp-574379,CsHg2,0.0
mp-764105,NaNiPO4,0.03378141571428639
mp-18204,Ba5Yb8Zn4O21,0.05673393846490881
mp-540536,Mo2P3O13,0.009339957638886176
mp-675597,Na3NO2,0.22687140316666546
mp-1040192,KMg30SbO32,0.09722939296875044
mp-1008873,MnCoSe,0.18047375833333126
mp-764695,Li2VOF4,0.010866768154774498
mp-21450,Nd2InPd2,0.0
mp-557853,TiH8C4NO10,0.07837460034722278
mp-780595,Na3VBPO7,0.017581051270600945
mp-1022586,CeMg6Ni,0.1635612684375003
mp-635084,LiPWO4,0.5060009499999962
mp-16320,MnCu2Sb,0.23992488624999986
mp-15922,Gd2ReO5,0.0
mp-999470,NaNdS2,0.0
mp-849984,LiV4O5F7,0.04519023558822166
mvc-3891,Mg3Si3(NiO6)2,0.10051943766666492
mp-635134,KFeBP2HO9,0.1429414833796283
mp-569393,GdTlSe2,0.0
mp-1074700,Mg2Si,0.1818467586666688
mp-504207,LiSb(PO3)4,0.014031458611094116
mp-1094725,MgSn3,0.0725906968750003
mp-1039725,RbMg30BO31,0.13626550015151473
mp-34232,K(AsRh)2,0.0
mp-774111,Mn3OF5,0.05550184069445585
mp-1099889,Sr7CaTi7MnO20,0.11714460856132725
mp-780443,Li8MnFe7(BO3)8,0.0011387204513919613
mp-769537,Li14MgCo13O28,0.011702343214274435
mp-32755,La2Te3,0.0
mvc-13412,CaLa2FeO6,0.09863909521875057
mp-752406,Rb3TmO3,0.0020262764285714496
mp-1063561,FeNi3,0.0
mp-560526,Na3Fe2(MoO4)3,0.05136697449996408
mp-1017037,Mg6CdGa,0.04584240437499965
mp-673105,Cu3(P2O7)2,0.006319616309517606
mp-570002,C,0.7612875149999994
mp-2201,PbSe,0.0
mp-1019614,Cs3Y(PO4)2,0.0
mp-10489,Cs2Ti(CuSe2)2,0.0
mp-979412,Th3B,0.7370791365625013
mp-561366,Ca(ClO2)2,0.13588703619047404
mp-1018686,ErH2,0.20935887999999991
mp-774094,Li5V5(CoO6)2,0.06260628416666769
mp-767825,Cr22Ni50Mo3,9.010639999917913e-05
mp-765936,Co3NiO8,0.08298594055555507
mp-778150,Li9Nb3P8O29,0.1095130298724527
mp-772569,Li2Ni2BiO6,0.029703883863633432
mp-868821,Li2TiCr3O8,0.019495860198412984
mp-558079,Ca3Mg(SiO4)2,0.1014887133928566
mp-619475,RbFeF4,0.007715959166667119
mp-853274,Li2AlCoO4,0.08343824500000707
mp-1022620,YMg6Sb,0.1537165087500001
mp-766047,K5Li3Ti8(AsO5)8,0.008581582246093511
mp-675585,Ti7Co3N10,0.2064941435000005
mp-559909,Sr3Ru2O7,0.0
mp-675553,Ag(Mo3S4)2,0.06384819400000019
mp-11040,EuZnSn,0.0
mp-775396,Na2FePCO7,0.007813852499987561
mp-763490,Li4Ti3Nb3Cr2O16,0.08991812267857036
mp-706640,CaAl2Si4(H2O7)2,0.27989286575000083
mp-667471,KB5O8,0.2932910658928547
mp-865985,CdPd3,0.0
mp-1066029,RbBi,0.3646023937499998
mp-771545,Li4Mn5CoO12,0.08020504979301801
mp-780128,Fe2OF3,0.07757456000000751
mp-777907,Li5FeOF5,0.09547118666666601
mp-12231,SnTe3O8,0.0
mp-1075337,Mg3Si4,0.2469880019047617
mp-20324,Ba2LuCu3O7,0.036681253317307316
mvc-11097,CrO3,0.7567015009375009
mp-1031330,KLaMg6O8,0.4242570081250001
mp-778363,Li4Ti3Fe2Sn3O16,0.06557243508929568
mp-626267,Ca(H8O5)2,0.059421184675927385
mp-774516,Li8Mg3Cu9(SiO3)16,0.06364969180059532
mvc-14376,Y2V3O9,0.09446604941966008
mp-1034282,Mg14SiSnO16,0.29659655195312595
mp-622282,V2Co2O7,0.0
mp-770392,BaLaBr5,0.07388210625000012
mp-20277,RbEuO2,0.0026642925000004425
mp-20151,Eu(AlGe)2,0.0
mp-1097074,LiCaTl2,1.4519902575
mvc-9235,ZnNiBiO5,0.11798145742187495
mp-861883,Ac2CuIr,0.0
mp-534863,CaMg2TiAl2SiO10,0.014844369313724569
mp-683903,Cs3Nb2AsSe11,0.0
mvc-528,BaCa(CuO2)4,0.1962816928348224
mp-31829,Fe3(PO4)4,0.10775551384963487
mp-10893,MnAlPt2,0.006316844375000129
mvc-13964,TiAlO3,0.2554730400000018
mp-554346,KSr4(BO3)3,0.0
mp-38695,LiTbSe2,0.015412026249999931
mp-647427,Fe2Cu2Ge4O13,0.014923397857150356
mp-31416,Ho3TaO7,0.0
mp-1095567,ErMn2,0.08992052305555552
mp-622491,Pb13(Br3O5)2,0.0
mp-865149,PaAlRu2,0.0
mp-1094068,SrEr2O4,0.40591307928571396
mp-767778,Li2V3Si3O10,0.02276080122864066
mp-1079455,CeNiAsO,0.5307070602331372
mp-1079937,Pr3Si2,0.0
mp-31583,LiCo(PO3)3,2.5566250003272728e-05
mp-2251,Li3N,0.0
mp-556696,Ba2YbB2ClO6,0.00562579886904846
mp-559732,K2Nd(PO3)5,0.006627486195651677
mp-1575,CaC2,0.021952945000008658
mp-734137,H9C2N7O6,0.2640288884815307
mp-745186,CdNi2H24(ClO2)6,0.0258538367777783
mp-1066583,TlRe,1.1360247475000005
mp-561574,CoCuP2O7,0.039543039090912835
mp-763550,Li3P2WO8,0.06004423883928034
mp-766992,Li3VCrP2(O4F)2,0.03184208700980662
mp-772355,Li3Cu(NiO2)4,0.029304699062496564
mp-19675,Mn5(SiO4)3,0.07485337099999789
mp-974748,Rb3Tm,0.6244082450000001
mp-974376,PtRh3,0.0
mp-25201,Bi(PdO2)2,0.0987241807142878
mp-16365,SnSb,0.1873769600000004
mp-769874,Li2TiVO4,0.03528945968750552
mp-1099123,SrMg14MnO16,0.09743171750000013
mp-18079,BaLaCuS3,0.0
mp-4459,Ce2Fe14B,0.016347911397058826
mp-862734,Pm2ZnSn,0.0
mp-24280,GaH36C12S6(IO2)3,0.12662491418526756
mp-978986,Sr(GePd)2,0.0
mp-645116,Sm2MnNiO6,0.014148538499998862
mp-1016190,KMn3O6,0.0
mp-1001024,Y2MgS4,0.001633318333334799
mp-540395,Sn4(PO4)3,0.08893712006577648
mp-571177,Hg3Te2IBr,0.009501161428571379
mp-764003,LiCo2OF3,0.13407388214285645
mp-780628,Na6Cr2B4PO16,0.08641046637314798
mvc-11960,MgV2O5,0.10137626750000804
mp-23251,KBr,0.0
mp-1080093,InNi3,0.02833393666666595
mp-26285,LiBi2(PO4)3,0.06714971817129456
mp-707413,CuH12N2(OF2)2,0.043125978495874406
mp-28760,KRbS,0.008094586666666181
mp-10760,MgSe,0.0188222549999999
mp-611093,CaCrF6,0.00023151124997777828
mp-25159,KV6O11,0.027057150451375026
mp-765623,V3O5F3,0.07031192075757886
mp-540629,Al2Te2Cl7,0.0
mp-616260,KYb3F10,0.004504415714285059
mvc-2265,Ba2ZnCr2CuF14,0.023128601750000755
mvc-7507,CaSnBiO5,0.09130826169270813
mvc-356,Sr2YAlW2O7,0.4767771366346238
mp-753976,GdAsO4,0.059143521666667816
mp-621932,K(Zr3I7)2,0.4710357091666682
mp-1080096,Pt(S3N)2,1.00883195138889
mp-772497,Er4(B2O5)3,0.01408792416669691
mp-636316,EuIn2,0.0
mp-767345,Cr5(Si2O7)2,0.09778674782607943
mp-849986,LiV6O7F5,0.08236899181287073
mp-11985,LaMgTl,0.0
mp-1009822,SnC,1.2933709487499998
mp-972160,YbMgO3,0.3120830797499998
mp-556810,CoPtF6,0.0
mp-977575,MgSbRu2,0.0
mp-1097260,Y2PdRh,2.4936908025
mp-1026725,LaMg14Sb,0.0971357043750003
mp-1075045,Mg3Si4,0.233510602619047
mp-768358,ScInO3,0.07392411237499985
mp-775272,TiFe3(PO4)6,0.07436353558208975
mp-770763,LiMnPO4,0.07444853607142843
mp-1026867,RbMg14Co,0.2314069814843751
mp-31058,Er3InN,0.0
mvc-3762,Mg2Ti2O5,0.2866227980555553
mp-30175,Ca(AlZn)2,0.0
mp-29151,Li5NCl2,0.000231731249999978
mp-31186,AlFe2Ni,0.2331377149999998
mp-1095451,ErMn2,0.09275491138888724
mp-1069988,Y(SiPd)2,0.0
mp-650140,InCo3(CO)12,0.38836968750000267
mp-782706,V6O7F5,0.04757039055557044
mp-36150,Sm2TmS4,0.07791844687500316
mp-556167,SrAl4O7,0.13562745624999728
mp-675679,UTa2O7,0.06037468050000073
mp-557248,H7C(NO)3,0.3927129429578402
mp-29538,BaGdCl5,0.009553746785713637
mp-15483,Zn3(AsO4)2,0.005487694999999349
mp-27374,NaAsSe2,0.003313348437499641
mp-16621,HoAl7Au3,0.0
mp-865234,TaZnRu2,0.0
mp-25771,MnH8SO8,0.01770466347222399
mp-757433,NaTi4O8,0.023537647243575318
mp-768572,YAl3O6,0.08369926250000148