mpid,formula,e_hull
mp-767937,Na5Fe2P2(CO7)2,0.011968137799986069
mp-24958,Na4Fe2(PO4)3,0.016619437738101258
mp-30335,Al23V4,0.004216711666666485
mp-5940,CeB2Ru3,0.0
mp-10347,CsCa2Ta3O10,0.023103125267860847
mp-767870,Li3NiPCO7,0.07696018326922083
mp-772403,NbVO4,0.008631368854102206
mp-2028,Be2Nb,0.018951707539683227
mp-22010,Ta2CuO6,0.06290995111112174
mp-304,Ca2Ge,0.0
mp-979437,YPaTc2,0.0
mp-641621,U4Ga12Co,0.008431325686276027
mp-566924,K2BiMoPO8,0.0
mvc-6215,YSb3F15,0.206409266546058
mp-1031089,RbCeMg6O8,0.4358915101442333
mp-774721,Li5La3Nb2O12,0.05475073295455246
mp-28160,Ca3C3Cl2,0.0
mp-775768,Na2NiPCO7,0.0232307310937534
mp-1068396,LaCoO3,0.08446436000000013
mp-4582,NdRhO3,0.0
mp-775717,Li4Fe2Co3Sn3O16,0.05672638901786264
mp-980420,Ti3Si,0.0159899878819445
mp-1028203,CaMg14Ni,0.0843352071875001
mp-759848,Bi4O5F2,0.07108627477272568
mp-706597,Al2FeO4,0.007959164591841983
mp-771497,Co2HgO4,0.030347524107146032
mp-761558,Li3Fe(PO4)2,0.09560576241071496
mp-756544,LiLaO2,0.016473926249998886
mp-9816,GeF4,0.0
mp-653460,Co4Sn(CO)16,0.391133356621622
mp-559574,K3Sm(BO3)2,0.0
mp-703568,BaH2(SO4)2,0.000782546538460771
mp-1009014,LiCuO,0.3903837975000002
mp-686026,Nb24I35Br9,0.02317396316260112
mp-757547,Li2Sn3(P2O7)2,0.059142374347812776
mp-505206,Ta3SiTe6,0.0
mvc-6196,Ca2YCoO5,0.12245821541665958
mp-1096341,CdIn2Ga,1.06929852375
mp-761745,SrCd2H16(Br3O4)2,0.04609239553030253
mp-776873,Cr2O3,0.033325234250014546
mvc-3216,Y2MgMn2S2O5,0.22123208575333386
mp-1058119,KS,0.5826818291666669
mp-532526,Li2PdO3,0.04257015944444298
mp-767241,Li4Mn3Sb(PO4)4,0.08717298386904915
mp-17349,Na3In2(PO4)3,0.0
mp-1032036,Mg6ZnSnO8,0.21963129875000045
mp-989581,LaReN3,0.0
mp-1022683,YMg6Mo,0.2456655400000001
mp-985825,Al3Cu,0.045837798750000484
mp-769976,Li2FePCO7,0.015293977031242356
mp-10228,NbSe2,0.02997566333333257
mp-862880,PmBiPd2,0.0
mp-1099701,Sr7CaMnFe7O24,0.013112085083330172
mp-1022970,LiMg6Mn,0.12181691125000027
mp-735023,H4CSN2,0.009832656979167352
mp-24285,NpH2,0.07564321347222157
mp-771504,Na2MnBSO7,0.09178499521735084
mp-27283,TlPb2Cl5,0.0
mp-759535,Na3Cu5O4,0.026902468958332367
mp-558138,Te2AsCNF6,0.19222016682909
mp-1096392,HfVAu2,2.7779766575
mp-1094206,MgSn2,0.07629219000000065
mp-863852,Li5Fe5Si7O24,0.07252880536582751
mp-29063,ThZrF8,0.0
mvc-4248,Ca3Ag2(GeO4)3,0.06922071784167105
mp-10879,CeAl,0.10719654875000018
mp-638553,Ba2InIrO6,0.0
mp-19419,LiFeO2,0.34463473625000063
mp-8301,Gd2CF2,0.0
mp-865974,TmNi2Sn,0.0
mp-755292,Cs2BeO2,0.0
mp-1986,ZnO,0.006964027499999581
mp-30558,HoCo3,0.0
mp-656253,Mn(GaS2)2,0.0
mp-1074472,Mg4Si3,0.20227683015873146
mp-13122,CeGe3Ir,0.0
mp-568574,LaGeI,0.0
mp-1038042,Mg30AlCrO32,0.05198394421875197
mp-989602,LaReN3,0.006948256999999458
mp-867522,CsTi8O16,0.005569631000060582
mp-1009651,CaHg2,0.2787364000000008
mp-559089,PS2N3(Cl2O)2,0.2408557117429621
mp-29226,Ca3Ga4O9,0.0
mp-382,Th3As4,0.0
mp-12441,CaAl2O4,0.0592046731904734
mp-704550,Mn2SnC9BrO9,0.6175218914772724
mp-743919,VH16C4(NO4)3,0.06431790843750118
mp-686484,LiCa9Mg(PO4)7,0.0
mp-19307,Ni(RhO2)2,0.15897749999999888
mp-585211,CoP2O7,0.10392765293749928
mp-973606,Nd2IrAu,0.05995976026785765
mp-1072193,ErOF,0.0
mp-1093981,Zr2CoCu,3.221792345000001
mp-25008,Ca2Mn2O5,0.05806176944444185
mp-546266,DyBi2IO4,0.0
mp-1075962,Sr5Ca3Ti3Mn5O24,0.05154515198213616
mp-680655,Zr7Ni10,0.010045424852940243
mp-1016304,CsMg6B,0.4370501818750003
mp-865710,LiSnAu2,0.0
mp-763037,Fe4O3F5,0.07855898416665852
mp-571291,Sr3(SnP2)2,0.0
mp-1025652,Te2MoW2(SeS)2,0.10384549944444288
mp-14977,Na3Y(Si2O5)3,0.0
mp-2041,HoZn2,0.0
mp-569511,NiTePd,0.010101763333334013
mvc-5203,Mg(CoO2)2,0.05924647946428507
mp-768044,Li4Mn2TeWO12,0.059051086500002015
mp-16742,BaAgTeF,0.0
mp-830,GaN,0.005218160000000083
mp-1098598,Mg30BiCO32,0.1808674260937515
mp-1020636,Zn2SiO4,0.05158053011904418
mp-1014251,HfZnN2,0.0
mp-764683,Li5NiO3F2,0.09016597295454876
mp-1671,YbSi2,0.05834909833333324
mvc-668,Sn(WO4)2,0.15455303000000065
mp-762913,Li4Nb2Fe3Ni3O16,0.041092006010048365
mp-505490,Rb4SnSb6,0.0
mp-22787,Fe2Si,0.007348279583336392
mp-1037086,LiMg30CoO32,0.00985809546873817
mp-645218,Tb3BWO9,0.0
mp-558229,La10S19,0.0
mp-6068,Sr2TbRuO6,0.0
mp-542135,Mo2NCl7,0.0
mp-866873,Ca3Sn2S7,0.3106596013541649
mp-13100,MoPt3,0.15511923249999882
mp-753940,KLiMnS2,0.0
mp-18652,Sr3HoRhO6,0.0
mp-11743,LiYGa4,0.0
mp-25504,Li2CrPCO7,0.017469997812454174
mp-864627,Nd2Ga12Ni,0.0
mp-722501,SnH3S4N4Cl5O,0.14673789396842718
mp-19370,LaCoPO,0.21957772812499865
mp-763474,LiPWO5,0.03893228968749618
mp-2797,YCu5,0.0
mp-971769,Tm,0.01406612749999958
mp-1099220,CsMg14WO16,0.3522120882031245
mp-998397,KCrCl3,0.010213470888888132
mp-989627,SrTcN3,0.0
mp-770324,Na5LiNi2P2(CO7)2,0.010343114423077893
mp-1021383,RbMg6Ti,0.29860409041666625
mp-25722,Mg2VBiO6,0.00570982899999084
mp-558263,YH24C9N6(ClO)3,0.09640975597826083
mp-11527,Tm2Ni17,0.007517384210525613
mp-30786,TmMn2,0.030075256944442682
mp-556,ZrNi,0.0
mp-763146,Li4Ti2Co3Ni3O16,0.048530093005958896
mp-560262,Zn(InS2)2,0.056789174107144014
mp-600024,SiO2,0.018614682291666185
mp-18758,Co2GeO4,0.12289934197478924
mp-1098907,Mg30FeCoO32,0.04341092863281304
mvc-2851,Ca(BiO2)4,0.11382564413462415
mp-757176,BaYF5,0.0626858321428605
mp-1038168,Mg30MnVO32,0.010420562746999096
mvc-34,MnS2,0.012210162499999731
mp-567514,Ce9Sb16Cl3,0.0
mp-1021330,Rb2Ge(S2O7)3,0.0
mp-571512,TePt,0.13238979499999992
mp-778791,Fe4OF7,0.05771893500001379
mp-753748,Li3CuS2,0.050112410104166116
mp-565369,K4WS3O14,0.006034054886365325
mp-540700,LiV3O8,0.011610585000013884
mp-1059765,CoBr,0.9119512200000006
mp-1009082,MgSnAs2,0.0
mp-867119,LiHfPd2,0.0
mp-752881,Li2CuS2,0.08561959366666727
mp-949,CoPt,0.0
mp-1080457,K2SnN6,2.2905531916666693
mp-1026793,LiMg14Cr,0.08356277312499971
mp-22701,ScFeSi,0.0
mp-684732,Co2S3,0.02101834724999652
mp-566574,K4Fe2O5,0.0
mp-93,U,0.1112604613333339
mp-625856,TeHO3,0.03706318754165494
mp-677647,BaSrCuCO4,1.2088586624999982
mp-560246,LiUP(H4O5)2,0.0
mp-760635,Yb4Br6O,0.11191351727272814
mp-1077498,ErCu4Ag,0.0
mvc-3803,Ca2Sn2O5,0.16901003916666735
mp-849054,VS2,0.02012158333333325
mp-758505,LiCu3(CO3)3,0.08828514940104171
mp-863747,K4P2PdS8,0.0
mp-505774,V16O3,1.2768234579605249
mp-12872,ErIn5Co,0.0
mp-1079316,Dy(GePt)2,0.004268640000000268
mp-28496,K2UCl5,0.0
mp-1080045,SrHBrO,0.0
mp-23574,SbPCl8O,0.0
mp-505208,CoSnH12(OF)6,0.01657096826921478
mp-4790,ThGeO4,0.0
mp-569662,V2NiSe4,0.08595059333333578
mp-570622,NaGa3Se5,0.0
mp-849409,V4(OF3)3,0.006870012499986977
mp-697781,Fe(PO3)4,0.047097312806370965
mp-1096419,Co2CuGe,2.518541438125
mp-753923,Cs3HoO3,0.01030751071428604
mp-31402,Sm2GeRh3,0.0
mp-12240,Na2LiBe2F7,0.0
mp-680058,InTeI7,0.0
mp-675920,Ti6AgS12,0.0
mp-473,Na3P11,0.0
mp-770735,ZnCrO4,0.03584503208333256
mp-861735,AcMgTl2,0.0
mvc-11744,Ca(TiS2)4,0.0
mp-30757,La5Sn4,0.0
mp-1033714,Mg14GaBO16,0.25511267536458515
mp-31756,Ba2FeReO6,0.0
mp-867840,BeFeRh2,0.008268382499999838
mp-9791,Tl3AsS3,0.009835795535711787
mp-975173,RbYO3,0.2441622094999997
mp-773366,P2WO7,0.0
mp-861257,Tb3SbO7,0.001880862272727768
mp-15123,Th(AlC)4,0.0
mp-585184,Mo2P3O13,0.0
mvc-10125,MgAg3P3O13,0.09077318418749948
mp-772318,Li2Cr2O7,0.043356093825758
mp-801,Mo3Os,0.016440933750002884
mp-567542,PbI2,0.001835117499999761
mp-29443,PI2,0.0
mp-780894,Na6Ni2P(CO4)4,0.009919993987072221
mp-779207,Li6MnV3(PO4)6,0.05410329862501317
mp-780435,Li5Co2(PO4)3,0.0649600670454511
mp-1035561,Mg14FeSiO16,0.1942738036718729
mp-1028240,Mg14AlCr,0.09072851387500114
mp-1036171,BaMg14MnO16,0.18582780683593736
mp-1076055,Sm2V2O5,0.2419640569907422
mp-771906,Li2AlCoO4,0.07202842718750713
mp-765895,LiVF5,0.04700467928571861
mp-976775,NaMgO3,0.3563053410000005
mp-776023,CdSiO3,0.02695370075000092
mvc-12287,Mg2Fe2(SiO4)3,0.2212929804605226
mp-760251,Na2CuP2O7,0.033146459583336174
mp-1037198,YMg30BO32,0.1289713725815984
mp-2591,Ti3O,0.0
mp-1031430,Mg6TiCrO8,0.2120963948437504
mp-8578,Sc3InC,0.0
mp-1078241,FeS,0.25354540125000025
mp-764839,Na4FeO5,0.06811215833332795
mp-555952,Sb4RuC6(O3F11)2,0.09205468304487052
mp-630303,RhC2IO2,0.13499915124999706
mp-30158,Sr3Ga4O9,0.0
mp-546621,ErBi2BrO4,0.0
mp-763319,V3O5F,0.03877142499999309
mp-10312,HfVGe,0.011510154999999857
mp-1096325,YTlHg2,1.5499320383333337
mp-776589,Li9Sb3P8O29,0.05556840022109899
mp-580931,MgZn5,0.044284652976189776
mp-753942,BaY3Br11,0.0993149652499996
mp-650,Be5Pd,0.0
mp-780479,LiV2P4(HO8)2,0.052251396200005296
mp-753375,Sr3Ir2O7,0.01824716749999933
mp-762039,Fe2H4O2F5,0.002308794615379917
mp-571376,Dy4CdCo,0.0
mp-573324,CsK2Ho(PO4)2,0.0
mvc-14842,BaCa3(CuN2)2,0.25683902458333296
mp-30715,Lu2Zn17,0.0
mp-981934,LaBeO3,0.2560983178750025
mp-504260,LiCu4(PO4)3,0.029619559500008382
mvc-2427,Ca2Ta2CuO8,0.12738795945055514
mp-32085,MoP2O7,0.0040069684999988215
mp-752555,SrLa2O4,0.056226728214284094
mp-565637,NaFe3(PO4)3,0.052491614912252516
mp-1038333,HfMg30CO32,0.17415525742187565
mp-631541,BeGeB,0.7628307887500005
mp-480,ErPt2,0.030268778333334183
mp-17149,Sr3ErRhO6,0.0
mp-777508,Li5Mn8(BO3)8,0.055438074018500316
mp-738633,AgB10H26C6N,0.11415425155481262
mp-1093993,ZnO,0.023362526249999682
mp-9059,KLi6TaO6,0.0
mp-12243,Rb3SiF7,0.0034870436363636514
mp-774609,Na5Li3Ti5O14,0.0198607554444381
mp-1094582,LiMg2,0.03101123333333167
mp-774387,V4OF11,0.0013426775000020539
mp-1078813,YZnPd,0.0006280933333329131
mp-1069383,Eu(ZnP)2,0.0
mp-560904,CdHg2SO6,0.0
mp-1097075,ScTlCu2,1.96463653875
mp-558862,NaGe4(PO4)3,0.0
mp-762326,Li2CuF5,0.0057182542708487105
mp-1036211,BaMg14MnO16,0.1930538021484373
mp-13151,BN,0.17803211624999982
mp-566634,Y(FeO2)2,0.03304998476191478
mp-762575,Li2(FeO2)3,0.06424895198863734
mp-1038949,CeMg5,0.05532163833333348
mvc-11271,Mg(VS2)4,0.12014566115384273
mp-3271,Ti3AlC,0.0
mp-558708,Nd2Cu(GeO4)2,0.0047812614743589785
mp-1087480,LuAlAu,0.0
mp-1077928,Tm2Mo2C3,0.037133148571429686
mp-972949,LaSmZn2,0.012662094999999596
mp-1078462,BaMg4Ge3,0.0
mvc-10358,CaCu2(SnO4)2,0.23952687884615464
mp-865603,Y2IrRh,0.0
mp-989555,Tl2InGaF6,0.0
mp-605688,GdH6C6Cl3(O3F2)3,0.17769055802419587
mvc-1286,MoP2O7,0.18240536974999969
mp-999096,Ti2AlCr,0.1259768159375012
mp-32873,Hf23Se25,0.0
mp-626221,V3H5O8,0.07108356156250029
mp-1027658,Te2Mo3WSe6,0.04233701166666748
mp-851264,LiMnPO4,0.06807977952380906
mp-767534,Na2CuPCO7,0.0
mp-15556,Rb2As3,0.0
mvc-12347,Zn(CrS2)4,0.08552480807693286
mp-983555,Er2PdAu,0.02025932000000008
mp-680772,Sb5IO7,0.2261137533653841
mp-685146,CdTe,0.005142329999999973
mp-763917,Cr4CuO12,0.09249953628676533
mp-12584,Th2CrN3,0.0
mp-561551,Y2Si2O7,0.00998542590909146
mp-3942,TmSnPd2,0.0
mp-752423,Na2TiO3,0.009737825000006415
mvc-11568,Ca2Mn2O5,0.0580617694444241
mp-566804,MnC5(O2F)2,0.7344297789583347
mp-605125,Rb4CeH12C3O17,0.5520658508445937
mp-1026590,Mg14MoC,0.26152208085937545
mp-570831,U3NbSb5,0.0
mp-654358,Co3B7BrO13,0.0
mp-1708,YTe,0.006021569999999698
mp-567422,GdNiBi,0.0
mp-19194,BaMnP2O7,0.0059695268181521035
mp-1078278,CrB4,0.0
mp-774346,Li3V2(PO4)3,0.04479716399998868
mp-765279,Li10CoNi9O20,0.0
mp-677069,Tl3(V3S4)8,0.3497202044915237
mp-22923,BiPt,0.2543423874999995
mp-979042,Tm2BeOs,0.0
mp-767797,Li3Fe4(PO4)6,0.09587365819256187
mp-1099214,CsMg14GaO16,0.26811813809895924
mp-1067714,Nb3Fe,0.2916777837499982
mp-505786,CeH14Cl3O7,0.01185368490000016
mp-853137,Li2Si6Ni2O15,0.05950408499999504
mp-775630,Li4Mn2Nb3Co3O16,0.10405517773805162
mp-690919,Na8Al11Si13(AgO16)3,0.2090292162726
mp-541836,CeTmS3,0.006330376874999821
mp-978279,Mg3Cu,0.07305391625000013
mp-557032,Ba5Hf4S13,0.006845421022721787
mp-568823,YbAu3,0.0
mp-672298,Eu(MnGe)2,0.13818455624999704
mp-722605,Nd2Fe14B,0.0004640419117647454
mp-541052,Eu(ErS2)2,0.0
mp-569862,Rb4P2Se9,0.0
mvc-12546,Mn2ZnO5,0.3161680601562393
mp-28025,Sn2SO5,0.05826647159375131
mp-1034059,Mg14TiBiO16,0.2882399413281256
mp-574369,La2InCu2,0.0
mp-985831,HfSe2,0.0
mp-10503,MgB4Os3,0.0
mp-559614,Sr2ZnReO6,0.04023485516666625
mp-505216,Gd2Ru2O7,0.01741711500005927
mp-11631,Dy2Al6Si4Au,0.006307229230768208
mp-1025338,Tl2CuF4,0.0
mp-1096558,BeCo2B,3.081682123125
mp-1093708,Ti2MoPd,3.409286404166668
mp-1025748,Mo2W(Se2S)2,0.012583446111109177
mp-29312,InI2,0.0
mp-685607,CsTaSe3,0.0
mp-566538,Eu3Fe5O12,0.007500349125001193
mp-696384,K2CuH4(Cl2O)2,0.036132569423077854
mp-33569,Sr(LaSe2)2,0.0
mp-32324,LiNiPO4,0.009424755357146708
mp-1098017,Ba3NaEu3(Si3O10)2,0.0
mp-1074272,Mg4Si3,0.18450923373015995
mp-980044,YbPrCd2,0.0
mp-12355,Sr2YTaO6,0.0
mp-16826,Yb5Sb3,0.0048033828125002564
mp-379,AgSe,0.13881551285156224
mp-1096011,MgGeRu2,2.9235793386458337
mp-767341,Li2ScPCO7,0.047458792499999625
mp-680115,CdI2,0.001452222841269668
mp-28726,KYF4,0.0
mp-571539,CdI2,0.0010198077222223212
mp-15698,Sr5As3,0.0
mvc-3030,Ba2Tl2Co3O10,0.3062617166176356
mp-1028280,SrMg14Sn,0.1246999217187501
mp-1018697,EuCdSn,0.0
mp-773604,Na3Co(BO3)2,0.05881907437504896
mp-757982,In(HO)3,0.0570867567857114
mp-976824,MgPb3,0.031248531250000162
mp-1018158,DySb2,0.5514933016666665
mp-971661,Si,0.08158957869565242
mp-1095167,Ba2SrUO6,0.07079007550000149
mp-567553,Na7Fe4(PO4)6,0.009887929939027096
mp-775609,V3CoSn2(PO4)6,0.1046916023263913
mp-7193,Lu2Si2O7,0.0
mp-27902,BiSe,0.008049652500000448
mp-622217,V2CoO6,0.015933603333333934
mp-1038234,KMg30AlO32,0.059483738232422034
mvc-12063,FeO2,0.3144005159027774
mp-628216,Cs2KMn(CN)6,0.12299140864583168
mp-766976,Li4Mn3OF11,0.07419034743420294
mp-865883,GdMgZn2,0.0
mp-674367,Re6Pb5O19,0.0060270389999992355
mp-1064450,KCeS2,0.004230832500000226
mp-720199,Ca6La14Mg7Ti13O60,0.03274344849999977
mp-762410,Li12Mn2O9,0.06655774000000657
mp-977436,ZrAlRu2,0.004948169999998697
mp-1079742,GeN2OF6,1.338584636393
mp-766673,Li4V3P8O29,0.046148020643943966
mp-754519,LiNb(TeO4)3,0.008676185735293274
mp-764305,Mn2OF2,0.06955019199999947
mp-5330,LaAlSi2,0.0
mp-779046,Li5Cu(PO4)2,0.0335505245312504
mp-1028422,Te4Mo3WSe4,0.049777551666667634
mp-17119,SrCu3(SnO3)4,0.052994604999994976
mp-32795,Re3O8,0.1903115574242431
mp-556815,ZnS,0.0012182114285708145
mp-778231,Na8Co2O7,0.011057673970594095
mp-1079379,Nb(Br3N)2,1.1468200518322225
mp-22434,HfFeP,0.0
mp-707317,ErP4HO12,0.0
mvc-5738,Ca2NiWO6,0.10467216949999968
mp-754521,Sr(IO3)2,0.004504101388888238
mp-978744,SmBi3,0.07767431874999886
mp-16522,Al2Pd,0.036750029537034656
mp-2933,Pr2(ReB2)3,0.0
mp-567748,Zr2Al3C4,0.0
mp-744801,RbVH24(SO10)2,0.0019394701041681726
mp-752858,Li2CuSiO4,0.06537262062500204
mp-20764,YbCeSe3,0.07582681575000016
mp-3239,Er(CoSi)2,0.0
mp-1021314,Mg6TiB,0.5505727121875004
mp-1040469,KMoO3,0.10517512149999853
mvc-771,Sr2YFeCu2O7,0.01698930519230224
mp-758916,Ga2P3H12(NO4)3,0.004014481531250169
mp-1016624,Mg6BiMo,0.2366968012499999
mp-699457,Na2ZnGe2(HO2)4,0.0
mp-851042,FeOF,0.06872781722222054
mp-743696,Ca3Zr2Fe2SiO12,0.0
mp-570940,Ho7In(CoGe3)4,0.0
mvc-9012,LaMgFeSbO6,0.05105771887499698
mp-1093663,LiCa2Pd,1.3586965740625
mp-568346,HfBrN,0.0
mp-1075566,Mg5Si6,0.2098560326262655
mp-642991,TbH3(CO2)3,0.07438199461538453
mvc-9002,LaMgFeWO6,0.0766374797916658
mvc-10908,Ca3Mn2(SbO6)2,0.14446536912280727
mp-644259,Ti2NiH,0.07942137312500107
mp-676779,NaHo2F7,0.1583084667500021
mp-19773,GdGa2,0.0
mp-1038657,SrMg30BiO32,0.1283161731901048
mp-565798,Ni5Te4(ClO6)2,0.01928383895652175
mp-976229,KAgO3,0.3204902577500004
mp-643367,YCBr,0.0
mp-763747,LiFe(PO3)4,0.08601771527775083
mp-765699,Li3Fe(PO4)2,0.022026205267857257
mp-560824,La6B(NO2)3,0.0
mp-989618,Cs2RbGaF6,0.0
mp-8035,B4C,1.017483514807692
mp-12060,Nd(AsPd)2,0.0
mp-3582,Mg(BC)2,0.0
mp-9750,SbPO5,0.0
mp-20198,CaIrO3,0.6600472480000015
mp-19858,Sr,0.2248906483333335
mp-19612,Co2Mo3O8,0.1369100826923031
mp-1097574,Ba2HgGe,1.4785151449999998
mp-865378,LuSnRh2,0.0
mp-1029297,LiZr2N3,0.0
mp-997542,Li3Fe2(PO3)7,0.08532624563132885
mvc-3060,Ba2Mn3Tl2Zn2O10,0.17343734911181666
mp-560193,SnSe2(Cl4O)2,0.0
mp-705426,Mn9(P2O7)8,0.05959944175928913
mp-541628,CsTeF5,0.0
mp-714944,VO2,0.1442065866666642
mp-779477,Na2Ti2O5,0.02804759933333401
mp-762136,CrHSe3O8,0.0
mp-1094581,LiMg2,0.04828975166666516
mp-570093,DyZn2,0.0
mvc-10914,CrP2O7,0.14076431531249245
mp-2082,PIr2,0.0
mp-1026482,HfMg14Mo,0.13156476093750016
mp-620290,Sr2TlCuO5,0.01379787319443615
mp-699485,AlH12(NO5)3,0.0
mp-862666,DyGaRh2,0.0
mp-559296,AsS4N4F5,0.12389410165080415
mp-766758,Li7Mn11O24,0.07783531052296322
mp-617180,Cs2V5O13,0.0
mp-976404,NaF3,0.022204409405000014
mp-23297,BrF3,0.0
mp-19003,MgV2O5,0.026458665625000318
mp-1094664,MgAl,0.6437057009210516
mp-625941,Te(HO)6,0.09159224576923196
mp-1076218,La3SmV2Cr2O12,0.11465020846875085
mp-1074652,Mg2Si,0.10975347866666853
mp-1100173,CsMg6Fe,0.4054137674999998
mp-774191,Fe3OF7,0.11123489454545954
mp-1027624,MoWSeS3,0.02800399916666585
mp-1039275,CaZn,0.1959248666666642
mp-510474,Na2Cu3H8(CO2)8,0.18381063925675625
mp-763980,Li6Mn5Ni3O16,0.07606570329767681
mp-1013547,Ca3P2,0.14780385066666654
mp-31998,Mn(PO3)4,0.05718479849265722
mp-13934,Ba2TmReO6,0.0
mp-1097760,CsYbF3,0.0
mp-705395,Fe3P4O15,0.079134104876883
mp-626716,KHO,0.0037288250000004908
mp-647556,Tl8(CdN14)3,0.0730001944347185
mvc-9171,MgCr3O7,0.251008656363636
mp-29028,B2AsCl2,0.13446218700000045
mp-759901,Li3CuF6,0.020520643833334518
mp-769510,Li5Ti4Co3O16,0.09438034463169398
mp-774027,Sr24Fe16O55,0.00012003557894590958
mp-978546,Sc3Sb,0.09105033124999996
mp-597,TiNi,0.025326946944444373
mp-764217,Li5VO4F,0.04763190704545561
mp-1094635,Mg2Ga,0.04056514972221858
mp-622116,ReOF4,0.0
mp-767367,VOF,0.03878891666666817
mp-23955,CuH2SeO5,0.0
mp-778739,LiCu5(PO4)2,0.11263127390625005
mp-771410,Li2MnBO4,0.09253357398435114
mp-756686,AlGaO3,0.10792333850000002
mp-761723,Li2Si4Ni4O13,0.04113408565217114
mp-9595,NbInO4,0.0
mp-781498,LiMn(PO3)3,0.05091422630951925
mp-762765,Li2FeSiO4,0.04975629635416734
mp-32061,La2Mo2O7,0.09894244219697156
mp-640950,NaB9Se8,0.0
mp-6091,BaAl2(SiO4)2,0.0
mp-771176,Li2CoSnO4,0.019263049687497258
mp-11477,HoSn3,0.04491389666666645
mp-580357,Cu3Pd,0.0
mp-641595,Fe21(WC3)2,0.028466520689656605
mp-974392,HoB4Ru,0.0
mp-561974,Zr7(NO2)4,0.028232758684211486
mp-1032153,Mg6CoCuO8,0.06003007124999993
mp-779127,Ti17(NO4)6,0.031824757289790284
mp-1038876,Ce3Mg,0.08357390583333313
mp-680718,Er(BO2)3,0.0
mp-1059907,KB,2.096461323333334
mp-510559,Na(CoO2)2,0.0
mp-761151,Zr6O11,0.08505684305882255
mp-28377,CsGeI3,0.0
mp-1093832,CdCu2Rh,1.99943978875
mp-579107,Ag4Mo2Se3O16,0.0
mvc-8374,MgW2O5,0.3885378834375004
mp-652200,C2IO,0.5200486531250004
mp-722832,PH3NF5,0.0
mp-673663,CuGe2P3,0.12034520986111108
mp-1026568,CsMg14Sb,0.21650903083333328
mp-542622,P4O7,0.04521867525324641
mp-769427,Li5Fe6(BO3)6,0.08445293414285437
mp-582274,Ce(Ni5P2)2,0.007977004500000717
mp-562247,Li4Mo5O17,0.0145907367040623
mp-767037,LiV(PO4)2,0.09341733256944984
mp-554144,K3Mn2F7,0.0
mp-1020109,LiMg3P3O11,0.0
mp-1022513,Mg6ZrCo,0.1846103325000001
mp-776725,V3Cr3(SbO8)2,0.09925016804687914
mp-780169,Hf2N2O,0.0789396091666621
mp-1016850,BaRhO3,0.11198496962962776
mp-1096495,LiNi2As,2.221474320138888
mp-735535,NiPH6NO5,0.009027167636073584
mp-777529,Li2VF6,0.032829487962976245
mp-770188,Li5Fe2P2(CO7)2,0.030719842799999064
mp-20219,CsUCuTe3,0.0
mp-776486,MnAgO3,0.06703565349999963
mp-19953,ZrCuSi2,0.018999235937499748
mp-21185,Cd3P2,0.21414353550000031
mp-559246,BaCrF6,0.0
mp-25097,LaNiO2,0.3952987950000004
mvc-14287,Ti3Zn2O8,0.08321632865385542
mp-10659,Ho,0.0009896149999999435
mp-6939,Sr(BIr)2,0.0
mp-1025439,CsCuC2,0.29643611624999977
mp-570122,Cr3Te4,0.05841366428571426
mp-768931,Ga10Si2O19,0.07373361064517336
mp-1031233,CsMg6SiO8,0.8242528729687475
mp-867901,ScTaTc2,0.0
mp-756598,ErTa3O9,0.003096970769233209
mp-764421,Li3V2(O2F)2,0.09408918299241176
mp-865373,YCo,0.0
mp-774192,Li2VO3,0.021653302083339376
mp-763011,LiMnF4,0.03340005624998986
mp-18229,CaTa2O6,0.0
mp-1078160,Cr2CoSe4,0.04617224535714026
mp-776318,Li2FeNi3O8,0.016364017455358315
mp-770848,Li2TiCo2O5,0.05605107249999719
mp-28691,TaTe4I,0.0
mp-975299,RbInO3,0.2810660813333348
mp-6788,La3Ga5SnO14,0.0
mp-10421,RbAuC2,0.3290794215624997
mp-555797,Zn4As2O9,0.0077501065833303065
mp-1029592,Li3YN2,0.0
mp-767811,CoH4SeO5,0.06446588719696944
mp-685066,US2,0.0030096146666647172
mp-978885,SnTe3,0.3043684050000004
mp-675756,Ba3P4O13,0.7276558141249811
mp-21058,Mn3InC,2.4087838766304346