mpid,formula,e_hull
mp-1093767,Sc2TlMo,2.6007519237500003
mp-557829,Lu2Te5O13,0.0
mp-555297,HoH16C2S2NO12,0.06601842526185386
mp-1079620,Cr(ClO)2,0.1524976290666702
mp-997022,AgAsO2,0.0382521747500002
mp-776021,Li4Sb(TeO4)3,0.07086748696874512
mp-861880,AcCdRh2,0.0
mp-29890,Th2AuF11,0.0
mvc-11131,Zn(CoS2)4,0.14118099096153625
mvc-10030,LaCrBiO6,0.1843997898842611
mp-31084,ZrGe2Rh,0.0
mp-570205,PrSe2,0.0
mp-18761,K3V3O8,0.0
mp-648179,Cs3Mn3V4O16,0.0
mp-553347,La2O3,0.2794689039999998
mp-669508,TaP2NCl12,0.0
mp-1029843,Ba2CrN3,0.0
mp-764056,Na3(NiO2)2,0.050521283958334884
mp-1096629,Li2TlHg,1.0286186500000003
mp-966,NbS2,0.0008732516666674073
mp-777422,DyHO2,0.00791665656250018
mp-11338,Sc3Si3Ni2,0.0
mp-771655,Li3V2CrO6,0.020828401874998903
mp-1032015,Mg6TiZnO8,0.19904986390625007
mp-775290,Li4Nb2Cr3Cu3O16,0.05235705476189256
mp-4836,Yb(MnSb)2,0.2017797570000006
mp-31017,Ce4B2N5,0.0045036900000070546
mvc-9314,PrTi2ZnO6,0.12877888375000346
mp-1098723,CaMg30CrO32,0.024721688749998805
mp-13098,YN,0.9353190950000004
mp-680170,Cs2Ti2S9,0.0
mp-9921,ZrS3,0.0
mp-780793,Fe10O11F9,0.07250708689582819
mp-556369,CdHg2SeO6,0.0
mp-18966,FeAgO2,0.00015455124999963488
mp-37473,TiOF2,0.07748359093749979
mp-689441,Cs2KMoF6,1.0300000035101677e-06
mvc-8750,Zn(SnO2)4,0.21430300596154075
mvc-1660,Ca(BiO3)2,0.05209655333333263
mp-1080267,CeSe2,0.5290848779166666
mp-13336,RbSc5Te8,0.0
mp-1096357,TaMn2Ga,3.2619916265144218
mp-761377,Co21Cu3O32,0.005596349196429706
mp-27786,SbAs2Cl13,0.0
mp-705454,NaCo2H3(SO5)2,0.8905954036111154
mp-998419,BaHfS3,0.0
mp-764093,Li5Ni2(PO4)3,0.05518062795454615
mp-573321,TePdI2,0.018826298999999658
mp-1001058,CoCu2SnSe4,0.0515007465624997
mp-1009224,MnSb,0.16869627250000185
mp-1028342,Mg14AlCo,0.14425526812500022
mp-1074123,Mg4Si7,0.22172002964646653
mp-11313,ZrCd3,0.0
mp-30722,ScHg3,0.0
mp-768731,Li2BiBO4,0.09557152031250203
mp-755664,Li2(TaS2)3,0.0
mp-1022471,Mg6ZrNi,0.16265628312500002
mp-1099069,YMg14MnO16,0.1324530117037508
mp-1150,URh3,0.0
mp-22177,DyInAu,0.0
mp-866033,AlZnRh2,0.0
mp-1080375,CeSe2,0.5344444363888899
mp-1099007,HfMg14AlO16,0.20655277192968846
mvc-8332,CaCu3(NiO3)4,0.045736006927082684
mp-1096059,LaScRu2,2.4091987175
mp-781965,V2OF5,0.003201219583332637
mp-684580,AgI,0.001697019999999938
mp-769758,Li4Cr3FeO8,0.0906892434375024
mp-505042,Cu(BiO2)2,0.0
mp-25485,CoSiH12(OF)6,0.020477519230769133
mp-31039,Rb6Te2O9,0.0
mp-24657,ZnBP2H4NO8,0.0
mp-862917,PmInAu2,0.0
mp-776744,Li4Mn3Cr3(SbO8)2,0.005516213482134269
mp-770027,Na5LiMn2P2(CO7)2,0.015230918717949569
mp-1080300,CeSe2,0.17622964125000085
mp-633668,K23Na8(CdIn4)12,0.0
mp-13036,MoN,0.08756311437499953
mp-667373,SiO2,0.010058568333333184
mp-865401,Tm2ZnTc,0.0
mvc-3213,Sr2CrCuSO3,0.03478632039062557
mp-762293,LiCoSiO4,0.10223384564284288
mp-1094287,SrMg5,0.13429920041666654
mp-764415,MnFeCo(PO4)3,0.02805421458334489
mp-2857,ScN,0.0
mp-1094536,Mg2Sb,0.19844725333333368
mp-561527,Rb3Zr2P5S18,0.0
mp-1073857,MgSi,0.17026557055555536
mp-942733,Li7La3Zr2O12,0.007271003750002336
mvc-3773,YNiO3,0.07513797383333287
mp-704185,Fe4(PO4)3,0.10004694000000393
mp-567309,KFeF4,0.0
mp-754625,SrTaNO2,0.018161297999979453
mp-752870,ZrU4O10,0.0529290116666683
mp-1078372,Na2MgPb,0.002803600255681715
mp-773179,Li2TiCo3O8,0.04144013857140917
mp-765756,MnNiO2,0.1117778016071469
mp-3245,SnP7Au3,0.0
mp-696132,Zr5ZnPb3,0.0
mp-566049,KMoAsO6,0.0014738117361092762
mp-565501,RbZrMnF7,0.0
mp-644841,K2Pd(NO2)4,0.04439445817946641
mp-989567,Cs2RbTlF6,0.0
mp-1097297,LaYIr2,2.340986559375
mp-772802,K2TmPCO7,0.0152477108333402
mp-1008752,CeTe,0.12362054500000053
mp-1097128,Y2CdPb,2.1435751684375
mp-647164,Cu12Sb4S13,0.0
mp-18771,Sr2CoWO6,0.008713051999998278
mp-625819,H8N2O,0.038178502954545834
mp-1037798,CaMg30BiO32,0.09697365024739836
mp-752400,Ce2Sm2O7,0.08103353897727139
mp-977552,Be3Tc,0.0
mp-1036771,Mg30VSnO32,0.0642990399218748
mp-973276,HoLuCd2,0.0
mp-1079715,LuNiGe3,0.012773709500001118
mp-32597,Bi13O20,0.033356728295453664
mp-616958,Nd2Fe14B,0.2615810113235302
mp-1659,ThRe2,0.0
mp-762501,CaH8(NO5)2,0.022799248809521444
mp-763230,Li9Cr4(BO3)8,0.090789693851848
mp-569074,Th7Pt3,0.0
mp-771051,Fe2Ni3P6WO24,0.09188999243054764
mp-18196,Ba(TmTe2)2,0.0
mp-1075139,Mg3Si4,0.22208490547618973
mp-29624,Mg2Al2Se5,0.005670061111111124
mp-566301,As3Pb5ClO12,0.0
mp-989584,Ca6Sn2NO,0.0
mp-767213,LiVPHO5,0.0
mp-690565,LiCo7O8,0.07600918874999962
mp-1023122,CeYMg6,0.11619569874999992
mp-690772,V5S8,0.005293344615384221
mp-571033,NiSe,0.05742360166666671
mp-573763,Cs2Te,0.0
mp-15560,Ga(PO3)3,0.0
mp-755340,Tb2SeO2,0.0
mp-24614,BeH8(NF2)2,0.0
mvc-14513,Y2V2O7,0.01281800477272732
mp-1035429,Mg14TiCuO16,0.1149374149218758
mp-755941,Sm3TaO7,0.013410017272709851
mp-631511,BiBTe,1.2703598572222226
mp-1094713,Ce3Mg,0.14692475291666796
mp-753911,GdAsO4,0.020863648333333984
mp-565947,Mn2BiPO6,0.0
mp-540586,Tl2SnO3,0.0
mp-21069,YSiRu,0.0
mp-1018142,NbN,0.4208640300000006
mp-631495,BaYSc,0.8281251024999996
mp-755205,Zr2N2O,0.10245630800000073
mp-557127,Cs6Na2Nb6H36O37,0.0
mvc-4425,MgSn2O5,0.3119572246875002
mp-769519,Li21(FeO4)4,0.02924980414634248
mp-769615,Li4V3CrO8,0.006760310312499129
mp-985282,Ag3Ge,0.09588528375000037
mp-15778,MgNiSb,0.0
mp-998881,K,0.11553698
mp-560832,CaH2CO4,0.023045934687498715
mp-540869,VP2H4O9,0.0111710273437593
mp-19157,LaMnO3,0.010427086500000016
mp-3487,Ca3(PO4)2,0.03779942384615431
mp-23070,BaBrF,0.0
mp-23038,CsVBr3,0.0
mp-1028483,Te2MoWS2,0.15466103083333316
mp-570370,SnPSe3,0.0
mp-626506,NaHO,0.07209638666666951
mp-1099120,KMg14MnO16,0.11090983414062627
mp-25782,Rb2NiH12(SO7)2,0.0
mp-867245,LaAgHg2,0.0
mp-642844,BaH5BrO3,0.0
mp-12156,K3Sb5O14,0.01762630715909097
mp-1057416,ScC,0.9265177229838696
mp-849079,NiS2,0.1978864291666671
mp-769060,Bi12BO20,0.05565730920453316
mp-555849,Li2Mo4O13,0.011575291045321734
mp-560771,La4Ti9(Si2O15)2,0.005049848563833946
mp-768100,Li4Ti3Mn4Cr2O18,0.06990339137096058
mp-1014013,P,0.03968156690476121
mp-1079221,Th(SiPt)2,0.0
mp-6585,CaMgB2O5,0.0019412643055538574
mp-762462,Li6Ti3Cr(PO4)6,0.07887339394644144
mp-770261,Mn2P2O7,0.0010548663636367195
mp-973126,ScBiPd2,0.005124151071427718
mp-1021510,LiGe2(PO4)3,0.002404954305557539
mp-557658,RbZnB(PO4)2,0.0
mp-559551,Cu4Bi4S9,0.008766006862749975
mp-648006,Tb4In20Ni11,0.010451099309525702
mp-781675,Li3Co(OF)2,0.12855314937499962
mp-558579,TlHCO2,0.0996014564999994
mp-1079249,TbH3,0.00834411333333307
mp-862881,CaPmCd2,0.0
mp-121,Hg,0.024013280000000026
mp-26884,LiTi2(PO4)3,0.005799434444444529
mp-1033542,BaSrMg6O8,0.5142833506250009
mp-762512,Mn3CrCo2(PO4)6,0.04813184590276709
mp-889,Cr3B4,0.01869325357142948
mp-628773,SnSe,0.06993039249999987
mp-867160,LiCd2Au,0.0
mp-622258,RbV2SbO8,0.0
mp-762955,Li3V3P8O29,0.048278070959293366
mp-649080,Ti2SCl12,0.0
mp-998987,Ti3Ge,0.1919747119444448
mp-771558,Na3CoPCO7,0.024142818076923863
mp-24967,Fe2TeO6,0.0
mp-770133,Li5Fe2P2(CO7)2,0.027049216399998244
mp-766254,Cu(PO3)3,0.01867586899037832
mp-637965,Gd(FeGe)2,0.0
mp-849084,Cr5S8,0.0
mp-22736,InCuS2,0.0
mp-1335,VFe,0.035703476874997975
mp-553243,YBi2BrO4,0.0
mp-30068,CIN,0.4600238216666677
mp-567214,NdSnRh,0.0
mvc-6957,CaVP2O7,0.03340827494317722
mvc-14335,MnZnF5,0.03027489166666442
mp-4675,NaTaO3,0.004639147999998983
mp-1096852,BaNiCl3,0.2825011050000006
mp-604337,Cd(HN2)4,0.1069795321448721
mp-765492,Mn11Cu7O24,0.026283919419642032
mp-1017509,MgNiH2,0.03765841718750052
mp-761140,Na4Ti7O16,0.09110614629629588
mp-653887,Co4Pb(CO)16,0.40667031081081184
mp-775246,Cr5(PO4)4,0.007651600700004478
mp-570163,Tm4Mn4Sn7,0.02225151111111145
mp-1015582,CrN2,0.4660284025399992
mp-1079287,KCuF3,0.012935443999994687
mvc-9057,ZnCo2(PO5)2,0.1356376208333323
mp-556994,SiO2,0.08502018166666757
mp-774838,Li2Y14Ti14(S2O5)7,0.009157493037978526
mvc-15980,BiF4,0.07154551425000387
mp-773768,Na2CoO3,0.026684186397058163
mp-7473,LiCu2Si,0.0
mp-1031204,RbMg6TiO8,0.4861595730468764
mp-1074141,Mg4Si7,0.2149724201010117
mp-8300,Ba4As2O,0.0
mp-7204,CaZnSO,0.010619815000000088
mp-865382,V3Ru,0.0
mp-28024,YSiPd2,0.0
mp-11809,TiAl2,0.004951415000001624
mp-1016853,CaVO3,0.13085505050003746
mp-1072199,PuB2Ir3,0.05638317074999932
mp-1071400,UGe2,0.1829732008333336
mp-504271,Li3Ni2(PO4)3,0.06575321631250207
mp-8975,Hg3(AsO4)2,0.0
mp-1029573,Ba3GaN3,0.0
mp-22345,TiCdO3,2.111188309999992
mp-568602,YCrO4,0.02252744833336351
mp-706576,BaGd2Mn2O7,0.22977589666664144
mp-863021,Ba2Sc2O5,0.027184461666665882
mp-25091,La2NiO4,0.06379435571428438
mp-780529,Li3Mn4(BO3)4,0.0401518750362122
mp-644303,UW3O11,0.030062456666614782
mp-772481,Li4Mn5Fe3O16,0.044962849553733975
mvc-9319,Pr(BiO3)2,0.12782435333333275
mp-28387,PAuCl8,0.0
mp-675733,Y5(ReO6)2,0.0
mp-13588,CsB(CN)4,0.30528188350000285
mp-1040304,HfMg30TiO32,0.09336499087890626
mp-9923,VP2,0.0
mp-754668,Hf3N2O3,0.037464106874999466
mp-1094814,CeMg3,0.12613429249999975
mvc-14985,YNiO3,0.0
mp-8658,CsNaSe,0.0
mp-1078899,LuNi,0.0
mp-2716,TiNi,0.028979428611109807
mp-2538,Y5Si3,0.0
mp-1094236,Mg2Sn,0.13849276249999987
mp-849423,Li2MnVP2(HO5)2,0.02103212828702272
mp-1016632,Mg6NbCr,0.2470404750000004
mp-22062,Yb4As6Rh7,0.0
mp-686465,Gd2Ti2O7,0.0372502050000012
mp-763989,Mn3(OF2)2,0.0476444163888905
mp-1093595,ScPbAu2,1.8406529175
mp-850371,Na6V2B4AsO16,0.08608771730291842
mp-31008,Na14Al4O13,0.0
mp-553956,P2Pb3O8,0.03425166769231325
mp-5182,Nd2Fe14B,0.0
mp-779221,P2H9(CBr)3,0.0
mp-601846,Yb2In8Ir,0.0
mp-865528,Ba5Cd2Sb5F,0.0
mp-17344,RbEr2Cu3S5,0.0
mp-8117,Rb(MoS)3,0.0
mp-1032770,HfMg6MnO8,0.3119887032212505
mp-1095068,Lu(BC)2,0.1759441767500043
mp-1095843,Ti2FeOs,3.8516014625
mp-769892,Li4Mn3Co5O16,0.05999572761905991
mp-776320,CuAsO3,0.08226295599999299
mp-700135,Cs2U2Mo3O16,0.0
mp-744285,K2MnH8(SO6)2,0.0021468488000015995
mp-773523,Na5LiFe2P2(CO7)2,0.012287666538459696
mp-1013545,Ca3BiAs,0.07116422254902233
mp-610469,CeBiS2O,0.025526905958328072
mp-637256,KC2N3,0.1213940637499995
mp-505296,Ce2MgSi2,0.0
mvc-2215,CaFe(PO3)4,0.0
mp-782665,LiVF3,0.05375279187499693
mp-18449,K2ZrO3,0.0
mp-22786,ThNiSn,0.0
mp-733457,CsNa2(H5O3)3,0.0016111641821003884
mvc-16291,TiZn(BiO3)2,0.057439076000000526
mp-865666,Li2TlAg,0.0
mp-705828,Li23Ni17O40,0.021122263843752258
mp-768996,NaBiAsCO7,0.05687273069318444
mp-1026771,LiHfMg14,0.06731938718750019
mp-28005,As2(SO4)3,0.0
mp-779178,Mn12O7F17,0.056235018576393785
mp-541433,Cd(BiO2)2,0.008153681964284232
mp-630976,In3Ir,0.0
mp-1073992,Mg6Si5,0.22038814651515184
mp-1073294,MgSi2,0.21397621166666614
mp-674531,Li5GeP3,0.010178677777778587
mp-504539,CaLu2O4,0.038186013749999866
mp-972524,SmSiAg,0.0
mvc-13041,Ca11(MnN5)2,0.05613090384058062
mp-753721,GdOF,0.0
mp-16180,Na6S2O9,0.0
mp-772080,BaLaI5,0.0773463694642853
mp-568591,La3CI5,0.0
mp-761372,Li4Cr3Ni(PO4)4,0.05847802529166124
mp-1036995,Mg30CoBO32,0.08268922140625001
mp-655147,Ba11(Cd4Bi7)2,0.0
mp-553926,NaLiB4O7,0.0
mp-1009540,OsC,0.7114682737500004
mp-867847,La2ZnRu,0.0
mp-1000773,Ce3AlC,0.0060323399999999685
mp-864734,HfInPd2,0.0
mp-582709,Y13Cd58,0.010838317394366026
mp-779588,LiCu2PO4,0.10039557062499416
mp-1028765,Te2MoW3(Se2S)2,0.07837921083333478
mp-568058,YbIn2,0.0
mp-12463,Ni(TePd)2,0.0
mp-37163,Ag2HgI4,0.10177164857142884
mvc-5576,CaVAsO5,0.037515821331836285
mp-648774,Zr2Cl5,0.054788639583333236
mp-1668,YbAu2,0.0
mp-654051,Nb6SI9,0.0
mp-863299,Cs2CoH12(SO7)2,0.0
mp-662565,K3Yb(SO4)3,0.4420010649671049
mp-542200,CdAg4Ge2S7,0.0015246539285707073
mp-1028378,Mg14SiNi,0.10394284144531253
mp-680309,Mo2NCl8,0.011721277756160829
mp-697078,Cs2SiP4(HO7)2,0.0
mp-1099746,La7SmTi2V6O24,0.1290999723125026
mp-690528,Li7(NiO2)8,0.013471477016134159
mp-643022,Rb3H5Pd,0.007659367222221824
mp-690497,Li2NiF4,0.0003946128571428176
mp-779185,Fe5O3F7,0.0766879213333409
mp-29237,Tl2SnSe3,0.0
mp-1032529,Mg6ZnBiO8,0.3158228018229172
mp-632760,Na2H6PtO6,0.0
mp-1018067,CrFe3,0.0621984900000001
mp-640442,Na17In12Ga29,0.010796958680077571
mp-1094777,Y3Mg,0.10016964687499907
mp-770698,Li2AlFeO4,0.09513992093750012
mp-762956,Li5V3P8O29,0.03418115446294845
mvc-12941,Mg(TiS2)4,0.02868321288462017
mp-6987,Sr(GaTe2)2,0.0
mp-866475,Ca3Sn2S7,0.084449574270832
mp-1027804,Mg14CuNi,0.08723904593750009
mp-1028083,CsYMg14,0.1856139981249965
mp-1030999,NaCeMg6O8,0.15139239769886448
mp-865901,BeCo2Si,0.0
mp-33449,Tb5AgS8,0.029802097232143325
mp-20493,Mg(InS2)2,0.0
mp-863292,Na3VP2O9,0.03298056688888806
mp-2580,NbB,0.0
mp-570645,Ca2Si5N8,0.004881382416667357
mp-765959,NaPH3C2N3O4,0.008997192650317842
mp-899,InRh,0.0
mp-16800,Sc2(SO4)3,0.0
mp-956096,HfFe2,0.014810176666665953
mp-1028114,CaMg14Mo,0.1560539796875
mp-570769,CaInCu4,0.0
mp-10763,KHgSb,0.0
mp-531296,Ge(PbS2)2,0.011208136964286908
mp-765440,LiV2F5,0.06406108000000099
mp-3603,Ce3(BN2)2,0.0
mp-1096175,CdPd2Pt,2.2008966933333345
mp-2688,HoGa3,0.004945881250000284
mp-1071492,ErSnGe,0.029161231666669174
mp-584808,LiCuPO4,0.05822272392857197
mp-865196,Li3V3P8O29,0.042358701773259184
mp-780329,Li2MnV(P2O7)2,0.0069707921401995785
mp-755646,LiCuO,0.09767502416666574
mp-9080,CsPrS2,0.0010867050000040734
mp-559834,AgBTe4C(OF4)5,0.08467832455256019
mp-510436,InPd3,0.02910280374999985
mp-15316,SrMgF4,0.05669038416666616
mp-582295,La(FeP3)4,0.0
mp-22780,BaIn2Ir,0.0
mp-977,LuIn3,0.0
mp-17499,K7Nb(SO4)6,0.0
mp-21268,SiAs2,0.12674106708333355
mp-772463,Li3Nb(CoO2)4,0.04999882874999617
mvc-15521,YAgO3,0.5828294879583336
mp-1035156,LiMg14BiO16,0.07997879859375079
mp-6723,Sr3ZnIrO6,0.0
mp-1098889,LiMg30CoO32,0.020927910624988225
mp-653562,Ag3I(NO3)2,0.2340315747916648
mp-763691,Li2(FeO2)3,0.32205848335227394
mp-30850,TaPt3,0.002263857499999133
mp-1084748,Ni(N3Cl)2,2.8059803684133344
mp-1025354,Er2Fe2Si2C,0.0
mp-13972,Sm2SeO2,0.0
mp-8211,GaGeTe,0.005630623333333418
mp-29011,BiTePd,0.0
mp-765339,LiAgF4,0.09215647416666473
mp-16705,Pr2O3,0.0
mp-27577,Cd2As3I,0.0021517983333336765
mp-1076977,DyAlGe,0.0
mp-540393,CrPO4,0.12267614000000115
mp-975651,PrTm3,0.018233183749999604
mp-560555,Li8Bi2PdO10,0.0
mp-782686,Mn6O11F,0.04715596465278615
mp-561183,KCrF6,0.0
mvc-5272,Ca2AlSbO5,0.14357359018253926
mp-978289,Mg3Np,0.4042206903125001
mvc-14150,Mg(CoO2)2,0.22024977142857072
mp-565213,Lu3Fe5O12,0.04228187278125084
mp-765090,LiMnF3,0.09736782449999913
mp-1099923,La7SmMn8O24,0.09421316843750917
mp-720439,H4Ru3C9N2O9,0.22126508900463104
mp-777615,Sb2(SO4)3,0.02289728294116777
mp-779104,Rb4PbO4,0.00094436916666929
mvc-8011,ZnFeAs2O7,0.021602666363675027
mp-764031,Li3V3P8O29,0.046282823982561005
mp-542081,K2LaP2S7,0.0
mp-1094688,Sr3Mg,0.1080723321874999
mp-7088,Ta2C,0.0
mp-540618,K3IO5,0.0002996605555569687
mp-767165,K2LiVS4,0.0
mp-541142,CrP(HO)5,0.013837965114087858
mp-541259,SbBr5F6,0.0
mp-773244,Al3Cr3(SbO8)2,0.12315394111110667
mp-19154,Ba(FeO2)2,0.0
mp-865811,LaYbAg2,0.0
mp-997548,LiFe2(PO4)3,0.07003484979167407
mp-972228,Zr3As2,0.0
mp-1095207,ZrPOs,0.005476444444445504
mp-530331,Al6SnTe10,0.0
mp-764398,VOF3,0.05728160200000242
mp-19965,K4BaU3O12,0.03610575525000215
mp-560078,KLaCr2O8,0.0
mp-18912,Na5NiSO2,0.1383023260416687
mp-714977,Fe2O3,0.0003081790000063478
mp-696040,LiCrP2O7,0.1653753518181782
mp-971928,Zn3Ge,0.13751019249999996
mp-778977,CaAs2HF13,0.0
mp-1081,V3S4,0.022157552142858528
mvc-10087,Ta2Zn(CuO4)2,0.14405522897435666
mp-8676,Tl(CuS)2,0.0
mp-1029258,Ca(ZnN)2,0.0
mp-16747,LuAgPb,0.0
mp-698449,PH12C2N6O3F,0.0
mvc-9634,PrV2O6,0.17984945388889173
mp-569126,AgBi(PSe3)2,0.0
mp-1022465,LaMg6Zr,0.16433926454545444
mvc-15440,Zn(NiO2)2,0.006565209999996213
mp-607139,ZrSnIr,0.0
mp-1017192,RbBaMg6,0.2812435811160716
mp-1569,Be2C,0.0
mp-753663,BaYBr5,0.05657141767857344
mp-566232,Na3LiWO5,0.0
mp-23210,MgCl2,0.0
mp-14476,LiRhO2,0.009875041249999937
mp-765887,Li4NiOF4,0.036226145999997066
mp-764957,Li2CoSiO4,0.014919305624993662
mp-1098698,Y2NiPt,2.5929224518750003
mvc-4329,SiMoO4,0.28416666222222103
mvc-9896,SnO2,0.29785052888888863
mp-18280,SiO2,0.008387525277777641
mp-984048,CeYIn2,0.0
mp-558960,Dy2Tc2O7,0.025387634545452897
mp-705370,Li3Mn(PO4)2,0.028226681607128164
mp-1080204,Mn3N4,0.08253025894571664
mp-505288,CaAl2Si2(H2O5)2,0.021852799144736142
mp-764164,Mn6O5F7,0.08952597451390076
mp-867751,Ca2AgSn,0.0
mp-976848,NiRuO3,1.2804884979999995
mp-1079121,SmCoC2,0.0
mp-1096761,KRb2Na,0.5295158215625
mp-767143,Li4Mn3O5F3,0.09550580660417116
mp-769759,Li4Cr3GaO8,0.017063122500001526
mp-763009,FeOF,0.05173953944444243
mvc-11093,MnO2,0.20233555250000013
mp-504810,Rb2Li14Pb3O14,0.0
mp-862715,Al2PdRu,0.0
mp-29176,Na8Si7O18,0.05265554931817906
mp-781064,Fe5O7F3,0.09114322324999956
mp-771189,Ba4Ti3O10,0.02074890176471911
mp-9967,NdSi,0.0
mp-1018076,Ga2BiAs,0.07281534375000033
mp-772659,Li3CrO4,0.07452550968749883
mp-565956,NaFe(TeO3)2,0.0
mp-707201,Cu4H10SO12,0.08681414185185242
mp-676450,Li2UBr6,0.05264954592592819
mp-858,TmAl2,0.0
mp-866062,HfSiRu2,0.0
mp-9124,LiZnAs,0.0
mp-771482,Na2FeCSO7,0.02014140239583373
mp-11277,ScBe5,0.0
mp-1094327,SrMg,0.20746085104166667
mp-12457,LuCuS2,0.005107553124999775
mp-773235,Li3Fe3NiO8,0.0106052267916672
mp-756477,LiTeHO4,0.06444239178571554
mp-1036835,BaMg30NiO32,0.07541082078125072
mp-541742,Cs3Mo2Cl9,0.0
mp-2409,Ni5Sb2,0.0
mp-21865,FeCu2Sn,0.2431613012500007
mp-677437,Na3Zr2Si2PO12,0.017913055249988652
mp-676801,K7Th6F31,0.0
mp-1700,AlN,0.021331835000001576
mp-616699,KMo(PO4)2,1.8009374942451473e-05
mp-559168,Sb2(KrF4)5,0.0056850596296293965
mp-1016275,CsHfMg6,0.4286146281249996
mp-772077,BaYI5,0.0674619292857157
mp-4531,NaNO3,0.0
mp-774313,CrBiO3,0.007960883249999995
mp-706412,Co2SnO4,0.01762749885714321
mp-763275,Li4Co3Cu2Sb3O16,0.10397207437500366
mp-11668,Sm2(Zn2Ge)3,0.0
mp-761665,Li2CoP2O7,0.05790182642358754
mp-13155,Hf2Ag,0.0
mp-567950,U11Ni16,0.0
mp-775736,CoPH21N5O7,0.01348596328571361
mp-15694,PaAs,0.0
mp-9780,RbHfAgTe3,0.0
mp-13800,Cs2NaTlF6,0.0
mp-762857,LiFePO5,0.09776236492187973
mp-1074938,Mg7Si4,0.25001637813131383
mp-757,Li3As,0.0
mp-2399,YHg,0.0
mp-570152,Co2(SnSe)3,0.0
mp-775443,Li4Mn3Fe2Sb3O16,0.058625424047608725
mp-961715,HfPtPb,0.9192980733333308
mp-2232,CS2,0.22320768142857084
mp-773356,Li8VO6,0.028181816500000068
mp-24045,AlP(H2O3)2,0.023698816249997808
mp-1008804,SmCd2,0.0009352966666664744
mp-676370,Yb3Ti3O14,0.4819046983125004
mp-866173,Y2RuRh,0.0
mp-1025924,Te4Mo(WS)2,0.1306945280555558
mp-971857,Zn3C,1.042442316875
mp-1076176,La7Sm(Fe2O5)4,0.0702834324826398
mp-765527,LiNi2OF3,0.08273957642857344
mp-1028420,Mo3WSe8,0.0006262600000006557
mp-1022494,SrMg6Zr,0.10328072513392828
mp-975524,InGe3,0.29805209125000065
mp-776280,Ti2N2O,0.05300393101199852
mp-21421,Pu2SO2,0.0
mp-25175,Cs(WO3)2,0.013487240277786585
mp-762541,Li4Fe(SiO3)3,0.081957088676468
mp-570534,Nd4Br9,0.14146431576923035
mp-850880,Fe4O5F3,0.0817677643229171
mp-570686,SnBi,0.06364602500000016
mp-773775,Li7Cr7(P4O17)2,0.09717719154760296
mp-1509,Sn2S3,0.004694266000001335
mp-646321,Lu5(In2Ni)2,0.0
mp-2806,YbSn,0.0
mp-22540,CeGaO3,0.8761329049411763
mp-15704,BeSiN2,0.0011847968750000606
mp-774300,Li3CoNi3O8,0.006551235444433701
mp-572,SmCd,0.0
mp-762749,Li6MnNi7O16,0.02589711783334625
mp-582635,U6Co,0.05036788035714146
mp-631518,ZrBTe,1.6968082183333326
mp-1098923,Mg30CoCO32,0.12476622585937315
mp-9351,LuGeAu,0.0
mp-759673,LiBiP2O7,0.05048036575757831
mp-569326,Zr4(AlC2)3,0.0
mp-1021354,Mg6TiCr,0.2476805486458331
mp-771933,Li2Mn2SnO6,0.049062411477255985
mvc-35,Ca(NiS2)2,0.3197358023214294
mp-28200,LaNb7O19,0.016632713148146294
mp-1724,Er2Fe17,0.02067167359649069
mp-628781,GeTe,0.1105760081249998
mp-1080205,KMnO2,0.14996514374999936
mp-1097652,MgScCu2,2.073544044375
mp-20521,ScInPt2,0.0
mp-553281,Ba2LaNbO6,0.0
mp-697800,LiFe4P7O24,0.033110376064823484
mp-27047,Li2CuPO4,0.053709499687501605
mp-15604,TmB2C,0.0
mp-571664,Zr2Rh,0.0
mp-1094265,Mg5Ti,0.08075872055555823
mp-1667,Co2Ge,0.05143338083333315
mp-708997,H13C3NF4,0.07710336267857176
mp-973652,LuRu3,0.360525305625
mp-4864,CaMgSn,0.0
mp-1039481,CeMg,0.04293244083333248
mp-25401,Li2TiPO4F,0.2643697002513159
mp-540355,LiCoP2O7,0.0250023418181824
mp-600514,V3H6CNO7,0.1495825428124995
mp-555958,Ba2Li3(PO3)7,0.0
mvc-9840,Ca(CuO2)2,0.2368784797619057
mp-11687,VTe2,0.0
mvc-12221,Fe3(P2O7)2,0.03990014892852845
mp-772051,Li3CuSiCO7,0.08817930788461402
mp-778637,Fe6O5F7,0.0904513166666705
mp-12697,Sc(MnSn)6,0.0
mp-20705,U2SnRu2,0.0