mpid,formula,e_hull
mp-630714,Mg(FeO2)2,0.10079381285715794
mp-984715,Ba3Er,0.2510313987499999
mp-1029719,Ca3MoN3,0.0
mp-571386,CuCl,0.1686624550000002
mp-1077078,KCN,0.12797944208332446
mp-25182,Pb2WO5,0.03243237062499915
mp-19801,EuRhO3,0.0
mp-1019359,ThSbSe,0.0
mvc-7390,CaMo2O7,0.1112137706249996
mp-706303,KCa2P4H9O17,0.012383883560605824
mp-765837,Li8VO5F,0.04881578333333182
mp-604889,K3Gd3(PS4)4,0.0
mp-763407,LiP4WO12,0.0
mp-782001,Li8La4TiNb7O28,0.0361769372916676
mp-696867,V4NiS8,0.017736483547010632
mp-978304,Mg3Ta,0.36297568250000056
mp-862370,Sc2PdRu,0.0
mp-776200,GdAsO4,0.0
mvc-10611,BaMnZnF7,0.01219786100000686
mp-1059621,KSe,0.4792354841666669
mvc-15207,Ta2Bi2O9,0.08813802874998444
mp-1029044,Te2MoW3(SeS2)2,0.07667279583333553
mvc-2923,Ba2Tl2Sn3O10,0.2240749583823556
mp-1094421,Mg2Zn,0.07975675304444517
mp-1013714,Ba3SbAs,0.6222132794153854
mp-28468,KAg5S3,0.0
mp-997106,AgRhO2,0.03789860999999917
mp-755389,CaEuO2,0.04351475749999878
mp-673069,Sb(PO3)4,0.050109580661750634
mp-640524,MnNb2O6,0.0
mp-768715,Li3BiB4O9,0.048591617573534585
mp-707910,H22C10O3,0.07628081907142814
mp-758812,Li3Sb2(PO4)3,0.0754948731250007
mvc-1391,Ba2Cr3O7,0.4492965023958355
mp-1076528,BaSr3Co2(CuO6)2,0.054020840550003335
mp-555977,Rb2ZnO2,0.0
mvc-7253,BaCuSbO5,0.34151652498046925
mp-1035962,KYMg14O16,0.1545883662500005
mp-758044,Li5Ti8O16,0.021437092241395558
mp-1077459,YbTe2,0.12192674999999965
mp-16857,LaMn3Ni2,0.15128777370370372
mp-540223,Li2MnP2O7,0.0216890905208329
mp-850138,LiMnP2O7,0.0734549327272731
mp-985440,CrGa3P4,0.2155328696875003
mp-694896,NaCa2V3(CuO6)2,0.04855344837500919
mp-770622,Li24Mn11CrO36,0.002542559722224169
mp-1021674,NiCl,0.5361873699999999
mp-777875,LiFeF4,0.010268466851860223
mp-31302,KCO3,0.06880784862500278
mp-1074263,Mg4Si3,0.22472672694444595
mp-559264,Bi2PdO4,0.086269537142873
mp-558846,Cs2As4Pd3O14,0.0
mp-778433,Li3Cr2(PS4)3,0.017940966374995426
mp-975666,PrBrO,0.0
mp-1093850,NaScIn2,1.7260942886875001
mp-779917,Fe3OF5,0.054563898888893014
mp-554155,KSb(PO4)2,0.0
mp-9807,KDy(CO3)2,0.0
mp-772891,BaLaBr5,0.08468999946428557
mp-1099111,CeMg6Al,0.14995087156250084
mp-706629,NaB2H5O6,0.009869844642858006
mp-777667,LiV2O5,0.0
mp-1096605,GaFeRu2,3.275397353749999
mp-853149,VOF2,0.02384582130209001
mp-1992,Pu5Ru3,0.054504354453124286
mp-762628,LiFe(PO3)4,0.02311102597221648
mp-2602,NdAs,0.0
mp-761575,Be(CoO2)2,0.09492616017857623
mp-572670,B2S3,0.0
mp-730154,NaAs3H2O9,0.0
mp-12607,PrPt,0.00405392374999991
mp-669418,Sr2NiN2,0.014511387666666488
mp-760590,Li5(CuO2)3,0.022069994642860642
mp-20108,CaIn4Pd,0.0
mp-1035986,YMg14ZnO16,0.1282890015625
mp-560789,SbI(ClF3)2,0.0
mp-23702,LiH2N,0.0
mp-645774,SnSO4,0.010823897499996349
mp-864661,ZnCuPd2,0.0
mp-561523,NbTlCl4O,0.0
mp-13949,Cd(GaTe2)2,0.0
mp-550722,Ba2Tl2CuO6,0.009265186010097182
mp-979435,YMg2Sc,0.009391103125000022
mp-30815,LaAl3Pd2,0.0
mp-1031453,KNaMg6O7,0.43348669350000346
mp-777249,Li4V3Cr3(SbO8)2,0.010949028660706794
mp-979946,DyYCu2,0.00834157187499951
mp-764024,Co6O5F7,0.1137739279861112
mp-978269,MgZn2,0.006790984166667125
mp-714931,VO2,0.4816543233333288
mp-778575,Li4Co3(NiO4)3,0.01659462015151281
mp-763928,Co2OF3,0.08611550937499768
mp-779161,Na4Bi2B4SO16,0.06823412247685301
mp-762316,Li2CrSiO4,0.053625709687504575
mp-772678,NaCoAsCO7,0.0332770822727273
mvc-4195,Mg2TaSnO6,0.19637828287500086
mp-3849,TlFeS2,0.0723374987500005
mp-560358,Zr2P2O9,0.0
mp-1080309,CeSe2,0.2830714387499995
mp-975255,RbPdO3,0.148178138999997
mp-540761,K2MnO4,0.0
mp-23858,H8PtN2(ClO)2,0.06542304567466761
mp-4770,Na2SO4,0.0
mp-776683,Li3FeF5,0.10122664763888968
mp-943466,Li2CoPHO5,0.07281841893750317
mp-2176,ZnTe,0.0
mp-1078924,Ce(NiSb)2,0.0
mp-632657,ZrNCl,0.2342396866666645
mp-720312,Na2B5H3O10,0.003083736079547705
mp-1030742,MoW(SeS)2,0.030796475833334117
mp-764708,Li3MnFeCo(PO4)3,0.012347282678605076
mp-579544,Ca6Cu2Sn7,0.0
mp-744094,Ba2La6Mg4Ti3WO24,0.2371078814375007
mp-578752,Sr11InSb9,0.0
mp-16507,LuAl,0.0
mp-6175,BaLi2P2O7,0.0018813664583365863
mp-560370,Ge(PbS2)2,0.0
mp-1030373,Te6Mo3WS2,0.09774309999999976
mp-867216,TaFeRu2,0.0
mp-767638,Li3Mn3(BO3)4,0.08906934583804471
mp-771908,LiFePO4F,0.035402662031250635
mp-973364,Mg,0.021510032500000158
mvc-429,Sr2GaCo2O7,0.2061006362197606
mp-18933,Li2WO4,0.0049723237500005615
mp-675450,BaBi4O7,0.10581487322916594
mp-669414,HfPbO3,0.012032672749997529
mp-569683,InAu3,0.0
mp-28637,Li4FeN2,0.2805688152380936
mvc-7955,ZnCu3(BiO3)4,0.16607466700000462
mp-1028405,Mg14CoC,0.1947293646874999
mp-30276,Ce10Ga5Cl4,0.006551865219297071
mp-743768,BaLa3Mn4O12,0.010700577041717452
mp-608031,NaNpCO5,0.0
mp-27234,Cu(IO3)2,0.00023427722222013614
mp-27664,TiPCl9,0.0005235685795468292
mp-774077,Li7FeO5F,0.06285760964285636
mp-557044,Yb(ClO4)3,0.0
mp-1023927,Te2MoWSe2,0.03087327166666665
mp-1023288,CsCaMg6,0.2840544531250002
mp-777601,Li10Mn3Cr3(FeO8)2,0.07677683014706016
mp-850098,Fe10O9F11,0.07874468966666726
mp-672313,Sc6Pb5,0.0
mp-765893,Li3NiOF3,0.08519844874999992
mp-25054,MoPbO4,0.0
mp-853144,Li3Cr3FeO8,0.08188202853437954
mp-864982,DyBr3,0.0
mp-735578,SrMoAsH3O8,0.07436732084820896
mp-867781,TaGaRu2,0.0
mvc-10329,HoCr2O6,0.1983893050000063
mp-1071320,Co2B,0.02491183750000037
mp-770318,Li5Mn2P2(CO7)2,0.04568939833333285
mp-5380,Ca4P2O,0.0
mp-1095334,HoCo3,0.0
mp-25696,Mn3O4,0.05244548500001578
mp-974883,Rb3Na,0.03250225125000017
mp-569770,Si(H3C)2,0.050882751481482025
mp-1078795,TmGe3,0.01777276624999935
mp-973538,Lu2AlZn,0.008873625312499911
mp-705024,VP2O7,0.06771362749999454
mvc-8747,Mg(BiO2)4,0.30194793346154025
mp-1505,TmMg,0.0
mp-27426,B4PF9,0.22622825187499984
mp-759029,LiBiP2O7,0.07737387348485036
mp-754171,CsRbO,0.06556617666666664
mp-763581,Li8(FeO2)5,0.08870038565217353
mp-756306,Li5Zn4(BO3)4,0.10180858744999544
mp-28592,Li7Br3O2,0.02780248249999939
mp-1034419,NaMg14CO16,0.2854062559570289
mvc-1192,Ba2Sn3O7,0.24892496708333225
mp-1093538,MnV2Re,4.014727055833332
mp-781788,K2LiNb6(PO8)3,0.0005316274999227488
mp-541863,ZnHgC4(SN)4,0.1382469955189789
mp-1094264,Sr2Mg,0.13023126291666665
mp-8221,ZrAsRu,0.0
mp-572124,SrTi2O5,0.21918258953124686
mp-1019612,Cs4ZnO3,0.0
mp-764578,MnOF,0.0624736966666708
mp-1016252,Mg7Ga,0.029132501875000605
mp-755000,LiTiO2,0.05326954499999825
mp-605676,AgH8C7S2O2F7,0.2573300253350981
mp-1021361,Mg6TiCd,0.10521744166666648
mp-695215,Y2Al9Si27(N15O)3,0.07732928703488008
mp-770039,Li4Cr3NiO8,0.015279431875000247
mp-1072944,ScCu4Sn,0.05999379500000224
mp-30765,LiPt7,0.0
mp-554946,SiO2,0.0107375002777772
mp-696649,KH2I3O,0.0056465110714287725
mp-1093938,Be2AgPt,2.049964344
mp-644838,Co2Mo4N,0.0
mp-38684,Li2MgCl4,0.0
mp-571384,KMnAg3(CN)6,0.28264442692588343
mp-755877,BaNdO3,0.173915306750005
mp-1080349,CeSe2,0.16507764680555592
mp-18825,YCrO4,0.0
mp-24052,CaMgNiH4,0.0
mp-11202,Y6FeSb2,0.0
mp-1096340,NaHg2Bi,0.7357345462500003
mvc-1297,AlSn3Se2ClO8,0.25820199259895826
mp-13400,Sm(CuGe)2,0.0
mp-31019,Al45Cr7,0.0
mp-620404,SnC2(SN)2,0.1997148728914296
mp-775513,Na2NiPCO7,0.02479318984375478
mp-780132,NaCr6O11,0.03357455481481075
mp-542691,K2CrH2Cl5O,0.0
mp-757131,Sn(PO3)4,0.025050904705897103
mp-541885,In3Te4,0.03436283090225612
mp-764273,Na2LiMnPCO7,0.025846608589744413
mp-1093962,Nb2TcNi,3.9200484658333337
mp-772548,SmCuO3,0.030750361499976894
mp-561022,SrMgF4,0.021782493888888862
mp-530545,In4GeSe4,0.02513305888888917
mp-568964,La3MgBi5,0.0129853753703717
mp-28583,Si2NCl5,0.007866998203124531
mp-24798,Rb3B12H12Cl,0.005666317857143001
mp-550117,Sm4Se3O4,0.0
mp-705889,Cs4Zr3Mn(PO4)6,0.0
mp-774275,Li3Co3(Ge3O8)2,0.039186608482144614
mp-973229,ScNb,0.1940939850000003
mp-15957,Sc15C19,0.0
mp-773932,Li6V3P8O29,0.019795693496390317
mp-626094,Al(HO)3,0.042485179821428964
mp-645246,Dy3BWO9,0.003321756607144621
mp-570039,La12Fe2I17,0.0
mvc-7514,Bi2O5,0.16234256267857372
mp-554143,Ba7Ru4Cl2O15,0.0
mp-1094998,CaMg,0.015520653750000113
mp-37,Th,0.0
mp-715490,Fe3O4,0.0
mp-1095504,HfCuGe,0.01908219333333516
mp-14951,Rb3AlO3,0.0
mp-767784,LiVSiO4,0.08958835723214252
mp-1077175,DyCuPb,0.0552226066666659
mp-15549,K2LiAlF6,0.0
mp-768330,Sn2P2O7,0.07879549530301855
mp-5065,Al2SiO5,0.01944490156249934
mp-567920,Ti4P3,0.0
mp-6494,K2Ca(CO3)2,0.0
mp-1075482,Mg3Si4,0.2663358636904753
mp-8216,LaBO3,0.0
mp-2355,MoN,1.8668890093750008
mp-1075724,Mg5Si9,0.2319977406349194
mp-865921,MgAlIr2,0.0
mp-867774,Ta2CrOs,0.0
mp-1006282,Nd7Co3,0.0
mp-756317,Al2HgO4,0.0853370025000002
mp-676411,Sr9U9O34,0.0009398202691972557
mp-1025395,HoTe3,0.3461577062500014
mp-17396,SrNi5As3,0.0
mp-3199,CuSe2O5,0.0
mp-771951,Ba3La2Br12,0.03868485330882177
mp-30656,TiGaNi,0.0
mp-540923,Ba3SnP3,0.006428258901785888
mp-769278,LiCuPO4,0.09690773607144187
mp-770098,Ga2NiO4,0.2172578135714361
mp-4530,Cd2SiO4,0.0
mp-546443,LiHO,9.096166666644476e-05
mp-761327,LiFe2OF3,0.17937045357142622
mp-12889,ZrU3Sb5,0.0
mp-675278,Cu11S16,0.2287620559259276
mvc-10526,Ti2Be3Zn(SiO4)3,0.2377007207142823
mp-5696,La2Cu2O5,0.05152904222222787
mp-685415,Na3SmBr6,0.0001217102999988562
mp-1039856,Mg30CdSiO32,0.11812170191406325
mp-770483,Rb3FeO3,0.018105503214295385
mp-1093881,CaInRh2,2.2986364571875
mp-765709,Li5Ti2Fe3O10,0.017833196750000724
mp-1096045,SrYPb2,1.86433972515625
mp-28204,CsH7O4,0.0
mp-764681,NaCr2O4,0.03101458345236718
mvc-11659,CaV4O8,0.10025111586537072
mp-865114,NaDyTl2,0.0
mp-583213,HgI2,0.0
mp-675993,Zr2N2O,0.0
mp-25761,RbFeBP2HO9,0.0
mp-769016,Pb(BrO3)2,0.023674651111111444
mp-24131,GdH3,0.004080952499999846
mp-17100,In2P2O7,0.0
mp-1030929,KMg6BiO8,0.3998768084375035
mp-625148,H3ClO5,0.04575736750000203
mp-546295,Sr2CuOsO6,0.007941415977271937
mp-753800,NbOF3,0.011487464500000044
mp-1026544,RbMg14Ti,0.2131766752083335
mp-707453,K5NaP3(HO4)3,0.0
mp-973019,LiSm(CuP)2,0.0
mp-14193,K2ThF6,0.0033301172222230946
mp-764207,Li4Fe3CoO8,0.012104341562499954
mp-1075203,Mg3Si4,0.2171772619047614
mvc-152,Ca(MoO2)4,0.15659915038461314
mp-27256,Sb2(S2O7)3,0.0
mp-780119,V6O11F,0.053225474444433374
mp-1030699,NaMg6BO7,0.4386147917702701
mp-770532,Mn2PO5,0.03938016562502433
mvc-3987,MgCrO3,0.12008506266665007
mp-762470,Li3Fe5(PO4)6,0.0927966442105408
mp-11531,VNi2,0.0
mvc-14907,Ti4ZnO8,0.20797417346154035
mp-12627,Nb3S4,0.0
mp-772838,Er(ReO4)3,0.0
mp-619127,Cs2KMn3F12,0.0
mp-762865,Li2V(SO4)2,0.028979065745486917
mp-617119,MnFeBiO5,0.04568717453124993
mp-1073455,MgSi2,0.2158887409259287
mp-770240,Li4AlCr3O8,0.00848853078125078
mp-1023063,SrMg6Mn,0.4329201813839285
mp-1094592,LiMg,0.043490664999999984
mp-707945,BaZn2H16O11,0.5404080754166589
mp-1032574,RbYMg6O8,0.3977115725000005
mvc-14734,TeO3,0.6790781041666669
mp-616407,N2O3,0.13473755126199194
mp-585382,Li3Co2(PO4)3,0.07321886647917353
mp-1038203,RbMg30AlO32,0.07818550148437531
mp-1026882,Mg14CuSi,0.07673199337499925
mp-764268,Na7(WO3)8,0.055860485051281834
mvc-12186,CoSiO4,0.5088419377777802
mp-555594,ZnS,0.00041604812499951294
mp-19323,SmVO4,0.0
mp-762394,Li3Co2(CO3)4,0.060913568214283835
mp-972032,Tl(IO3)3,0.0
mp-977585,Zr3Tl,0.0
mp-510605,Gd2Zr2O7,0.2748378968181804
mp-574250,InSiTe3,0.35038349999999685
mp-1033328,Mg6CrCO8,0.48577228082031
mp-755194,Er(ReO4)2,0.016577555719702985
mp-552806,BaBiClO2,0.0
mp-1080154,Te2Mo3W(Se2S)2,0.058373879166667024
mp-998613,KGeCl3,0.0
mp-22788,Eu(PRu)2,0.0
mp-20866,GeRh,0.039942912499999934
mp-555336,Sr(PO3)2,0.007827455138916584
mvc-5828,MoIrO6,0.02015877124999932
mp-1098791,RbMg30FeO32,0.07549794902343797
mp-676979,Mg2TiO4,0.009258176964284104
mp-1077471,YbBiAu,0.0
mp-559824,Au2Se3O10,0.0
mp-7280,PPdS,0.0
mp-764837,Li2VOF4,0.07036650627977448
mp-9385,RbAu3Se2,0.0
mp-781013,Li3V2P4(HO8)2,0.022722452962952392
mp-767826,Li2FePO5,0.0680631265277789
mp-770680,Li9Mn2AlO8,0.06804920795832636
mp-15269,Sr3CdIrO6,0.0
mp-862337,Sc2InAg,0.0
mp-568895,BaSbAu,0.0
mp-19983,TiCuSn,0.013095362708337888
mp-1028403,CeMg14Ni,0.14952751984375026
mp-10136,Ti2ReB2,0.0
mp-705511,Ce8Fe8As8O7F,0.11274396023437472
mp-759242,InH10N2Cl5O,0.01066105000000217
mp-543042,ScP(H2O3)2,0.0003331199999978552
mp-1093900,Zn2AgPt,1.6057753740131582
mp-778770,Li2MnV(P2O7)2,0.004115586685653483
mp-978950,Sm2ZnIn,0.005997792499999655
mp-19539,MnB4O7,0.0
mp-28965,AgBi2F12,0.0
mp-541432,Mn(Bi3O5)4,0.04957577073863551
mp-756878,NaYbO2,0.09564965416666736
mp-532802,Na2SrNd2Ti5O15,0.010795182144432758
mp-253,ScCo2,0.0
mp-1031243,KMg6GaO8,0.3321062656640628
mp-19631,Cr2Fe3(SiO4)3,0.030660393749995407
mp-562018,CSNF5,0.4620953216343242
mp-865616,Yb2AgIr,0.0
mp-16031,Sn3N4,0.00015810006857286396
mp-31763,Ca2FeReO6,0.0
mp-5321,Ho7Co6Sn23,0.0
mp-504802,MgH12S2O9,0.018626362540760333
mp-534850,NaCa9Ti9Nb(SiO5)10,0.0021970703437492745
mp-540839,CsPbI3,0.0
mp-30974,CsWCl6,0.0
mp-1093725,CrSnRu2,3.127485645624999
mp-29007,P4(SO2)3,0.014851339283216802
mp-767197,VOF3,0.02490929350000215
mp-974970,Rb3Mn,0.6758409125000004
mp-978928,SnCl,0.2411995381249996
mp-762853,Mn2H8S3(NO6)2,0.0007489431481477737
mp-684477,Li2Sb(PO3)5,0.03669483873188728
mp-12806,Cu2GeTe3,0.0
mp-776791,LiFeF4,0.0054918551851939066
mp-550086,V2CuO6,0.02703588222222919
mp-763714,LiVP2(HO4)2,0.009589818392857552
mp-862612,ScPaTc2,0.0
mp-651155,TeI4,0.0031408665000001172
mp-1273,CsGe,0.0
mp-975422,RbF3,0.0
mp-1027955,LiMg14Zn,0.028439126250000564
mp-720509,Li10Si(PS6)2,0.0
mp-28778,KScF4,0.0
mp-998947,TiRu3,0.18159076999999968
mp-1025740,MoW2(Se2S)2,0.01268884055555386
mp-775202,CrSb3(PO4)6,0.0026193531617630947
mp-546320,Rb4CO4,0.2652228277777775
mp-1080178,GdZnPd,0.0
mp-695571,Na5Ca6Nd5Zr16O48,0.006778247906250812
mp-672209,RbCS(OF)3,0.11867296347221945
mp-861900,LiGaAu2,0.0
mp-1075012,Mg3Si4,0.19826845119047576
mp-720118,Sr3Nd10Al12Si18(N2O)18,0.027939922680436883
mp-868632,MnOF,0.045936280416671416
mp-982511,HoGa2Pd,0.0
mp-704975,Cs5CeNi2(NO2)12,0.19554679999469726
mp-1078865,SbS4N3,1.9665633304559385
mp-703256,NaCoP2HO7,0.0012599927777721116
mp-1094088,NbCoSn,0.0
mp-21888,Tm3SnC,1.7633013003333344
mp-867275,BeVOs2,0.0
mp-1096445,CsRb2Bi,0.8692616666666662
mp-28556,Na3CuO3,0.0
mp-779413,BaP4O11,0.010846968124998746
mp-766765,LiFePO4,0.08724340999999924
mp-542011,Cs4Ti3S14,0.0
mp-1098954,Mg30VSiO32,0.08686983915264522
mp-3855,Na2BeF4,0.003129816428571353
mp-1031943,YHfMg6O8,0.3757267771484383
mp-25040,DyMn2O5,0.0
mp-761672,Li4Ti3Cu3(WO8)2,0.08858575258928614
mp-570481,Se,0.0
mp-1020714,Y4AlSiNO8,0.01397508724167018
mp-1066872,InOF2,0.3463604942187501
mp-756495,Li3CuO2,0.0982829079166665
mp-1079923,H3W,0.09319662728499978
mp-680055,CdI2,0.0016511617373737852
mp-567013,K4Ni(NO2)6,0.093749092001449
mp-29839,Bi2SeO5,0.0
mp-562137,KLiCO3,0.0
mp-752450,Ba2SrI6,0.09822525055555564
mp-641957,Nd(Fe2B)6,0.02236675563158297
mp-1096940,CuBO2,0.6368373133333369
mp-1028337,HfMg14Ni,0.13747954093750048
mp-1094759,La3Mg,0.055343772499999666
mp-634106,Ni(WO4)2,0.1939161994318166
mp-549475,TbBi2BrO4,0.0
mp-983539,BeAu3,0.18057241000000035
mvc-6718,Mg(MoO2)2,0.16471925428570874
mp-2130,LuNi2,0.0
mp-774050,V4OF11,0.0013171496875017394
mp-23065,CsCu2Cl3,0.0
mp-1030459,Te2Mo2SeS,0.056912109166665566
mp-913389,EuSnPd,0.005131897500000093
mp-16966,Ce(Al10Co)2,0.0668835728260877
mp-862288,AlFe2W,0.0
mp-8130,CaGeO3,0.10771110366667004
mp-768536,Cs3LaO3,0.0
mp-773342,Na5LiMn2P2(CO7)2,0.016369130833335355
mp-1078935,BC7,0.20651143098557512
mp-720570,Na2PH11O8,0.011061975568181559
mp-570589,SeBr,0.007620162792969066
mvc-1031,P4W3O14,0.2126322778571268
mvc-14600,AlSbO3,1.3180304097500004
mp-18125,Ag(AuF4)2,0.0
mp-676095,Na3Pr5Cl18,0.014910398461538852
mp-555188,Ba17Ho16Zn8Pt4O57,0.0
mp-867225,LaCdAg2,0.0
mp-762422,Li4Fe(PO3)6,0.053198237931043835
mp-754637,NaCuP2O7,0.015129458636375938
mvc-15985,Y2Ni2O7,0.055834244431818725
mp-1017292,RbSrMg6,0.2487177213839287
mp-760311,Na7SbO6,0.03828818785714638
mp-771642,Sr2CaI6,0.04673862750000035
mp-721128,Ga3P3H6C2NO13,0.2121193016613532
mp-689498,Ba4PrMn3O12,0.02332851987502771
mp-707516,Mg16Si8HO32,0.11328138335754545
mp-34355,Li31Zr2As13,0.1269505393840613
mp-735022,SrPHO4,0.0005405728571439283
mp-568385,SrLiGaN2,0.0
mp-862909,PmGeAu2,0.0
mp-775468,Mn3V(PO4)6,0.039837313860293655
mp-26741,LiCu4(PO4)3,0.03647699462500853
mp-38257,Na3(WO3)4,0.033017778333315206
mp-611426,C,0.1440567149999996
mvc-7669,BaYMnCuO5,0.04763404992283871
mp-557933,SiO2,0.007924097500000116
mp-42227,Cs2ZrTlOF5,0.016786857250002285
mp-1067627,PbS,0.05933307250000031
mp-1022541,Mg6ZrTi,0.15087231666666634
mp-1098347,Mg30SnBiO32,0.1384761579687508
mp-1077554,NaFe2O3,0.08416872749999804
mp-607,CeRu2,0.0
mp-763675,Li4Fe7O12,0.0487979928260831
mp-754992,LuTlO2,0.10169634671875016
mvc-9490,Mg(CuO2)2,0.08326738821428492
mp-551250,ErBi2IO4,0.0
mp-780463,Ti11BeO20,0.030909013749999662
mp-23519,Ga4Bi2O9,0.0
mp-14730,NaSiSbO5,0.024736645312501082
mp-777675,Li3V5O12,0.07578040124997898
mp-1093809,NaHg2Pb,0.7990712675
mp-766986,Li2Mn(CO3)2,0.038074598181810686
mp-763497,LiV(PO3)3,0.06508108495577503
mp-973935,OsN2,0.04903831674666748
mp-685705,Mn17Nb31N48,0.2060505074583343
mp-998591,LiSnCl3,0.0002357365000000833
mp-720380,CuP2(HO3)2,0.5369010912121244
mp-565544,BaLiCrF6,0.0
mp-1078988,Mg7V,0.20274961375000045
mp-569703,Ce20Mg19Zn81,0.0
mp-29381,Na2Te2As,0.010757446566667106
mp-613162,CsSnSe3,0.0
mp-694352,MoPO5,0.0066992160714285385
mp-758002,Li3Sn(PO4)2,0.05579952836309854
mvc-646,TiAl(WO4)2,0.2066368462660204
mp-15783,KSmS2,0.0
mvc-13867,Sb2O5,0.22416987428571306
mp-1096332,Tl2CdHg,0.784254985
mp-186,Na4Si23,0.006812460740741599
mp-669649,Yb6Fe23,0.06794604793103431
mvc-11190,Mg(NiS2)2,0.1679564894642871
mp-989455,LaWN3,0.032640617000000205
mp-1077697,Sr5Ca3Ti5Mn3O20,0.08900022247333972
mp-30053,NaCN,0.2023437970833326
mvc-941,ZnCuP2O7,0.02517674437499906
mp-779058,LiV2OF5,0.0598255044444409
mp-997024,CsAuO2,0.0
mp-583278,Cs3Mo15Se17,0.007553772400000547
mp-778924,ZnSeO4,0.0
mp-31885,Li3Fe2P5O16,0.013078001057678534
mp-762282,Li3Cr5O10,0.06275194864197252
mvc-8346,CaNi(GeO3)2,0.0
mp-20311,FeSe,0.0
mp-1069166,MnNF3,1.0578819238573187
mp-770345,Li3V(BO3)2,0.06606116645833371
mp-14698,Ho2Fe14B,0.0
mp-1001837,MoP,0.8954514549999999
mp-1096329,Ag2PdAu,1.7556561300000009
mp-778800,LiMnF3,0.07283747099999882
mp-30023,Ba(AlCl4)2,0.0
mp-679669,NaZr2SN2Cl,0.07665161750000493
mp-572741,CsUP3O11,0.0
mp-1078671,Sr2CaWO6,0.0
mp-759198,Li2AgF3,0.06983592999999999
mp-20244,ZrPbS3,0.002908407500000543
mp-771815,Eu2Al4O9,0.08209887966666685
mp-23541,KSn2Br5,0.0
mp-1033406,BaMg6BiO8,0.4952822718750012
mp-675681,Ba4Er3F17,0.0007746614583341582
mvc-11667,Mn3Nb2ZnO9,0.014234952222222931
mp-1096695,Tl2HgSb,0.6960070606547619
mp-1037059,Mg30NbNiO32,0.09046443770312518
mp-865678,TiMn2V,0.0
mp-977370,EuOsO3,0.22217982400000305
mp-607281,CaCr2O4,0.00022311928570495362
mp-22277,EuCuAs,0.0
mp-1098802,Mg30NbZnO32,0.06698290528125027
mp-1037789,HfMg30MnO32,0.09526244361781357
mp-684697,Sc20O19,0.056576795908119586
mvc-16094,Al5CuS8,0.0
mp-1095885,LiY2Tc,2.38016506125
mp-23571,KBa4Bi3O,0.0
mp-1001914,Li2SnIr,0.09829542176470607
mp-1031564,Mg6CdSnO8,0.28979029812500023
mp-24802,Sr2Al3Si3HO13,0.0007227180218842832
mp-706227,BH5C4(N2O)2,0.8714120202083331
mp-642779,Y2V2O7,0.6695457915909095
mp-31918,BaMn2O8,0.045497783371211575
mp-1076866,La7SmCo6(AgO10)2,0.0990240215104139
mp-1027579,TeMo2SeS2,0.05232179499999745
mp-30127,Rb3B7O12,0.004667869911615163
mp-5353,ErCo3B2,0.0
mp-545788,Ba3ZnN2O,0.0072486585714290905
mp-779552,ZnTe2O5,0.01804182226566553
mp-570153,Mg44Rh7,0.0
mp-779814,Cs2ZnH12(SO7)2,0.0
mvc-8911,TiZnBi(PO4)3,0.1062504122222272
mp-1030940,KMg6BiO8,0.3002261396875037
mp-773314,Li4MnFe3O8,0.09386870656251213
mp-765704,Li4Fe3Cu2Sb3O16,0.1051497569642832
mp-578642,Na4Ni3P4O15,0.0
mp-775357,LiV2F9,0.04375737791666623
mp-561187,NdGa3(BO3)4,0.014310189322914725
mp-850942,Mn12O7F17,0.04580755218750543
mp-1024988,LiYb(CuP)2,0.0
mp-867895,Sm2CuRu,0.0
mp-24041,MgH2SO5,0.0
mp-863265,K2Mn(PSe3)2,0.00257062465908664
mp-764632,VOF3,0.09555857100000242
mp-1016595,Mg6NbCr,0.2917138912500006
mp-772511,Li4Co3Sn5O16,0.037231420357145766
mvc-15496,Mg2Mn3O8,0.002644838461540289
mp-1021353,KLiMg6,0.1791265687500001
mp-779907,LiMnPH2O5,0.03898268937499516
mp-1094303,Sr2Mg,0.1427335495833335
mp-864945,MnBe2Rh,0.0
mp-560889,Ba6Na2Si4O15,0.0
mp-11585,La2MgGeO6,0.016045998999998368
mp-22814,U2Ti3Si4,0.02480151006944631