mpid,formula,e_hull
mp-1079705,Ba2LuTaO6,0.0
mvc-3609,Mg3Cu2(SiO4)3,0.12595323943749734
mvc-9438,Ti2ZnO4,0.15361658571428904
mp-778079,BaYF5,0.03974959142857682
mp-850107,LiMnO2,0.04741316416667374
mp-862861,Pa3Si,0.0
mp-5470,AgPS3,0.009844980333332032
mp-615902,CrOF3,0.1726731277500022
mvc-13886,TiAlF5,0.1441805498214288
mp-559569,YSiNO2,0.004937428180557646
mp-28658,Na2CdCl4,0.008163065000000191
mp-720825,NaPH4O5,0.03274978530303052
mp-1030814,HfMg6SiO8,0.4537239995312534
mp-555117,Cs2Bi4O7,0.0
mp-705606,Al2CoO4,0.03444397452381054
mp-1039864,CsNaMg30O31,0.15461884412698446
mp-764625,Mn6O5F7,0.0700113684027901
mp-740707,H8AuC2S2BrN4,0.008043360239801345
mp-510266,Fe2Te4O11,0.002170487573526003
mp-3869,TbBRh3,0.0
mp-616653,CsUVO6,0.0
mp-554048,NaAg(NO2)2,0.09624048000999964
mp-779869,Li2MnV(P2O7)2,0.00842919236747175
mp-1096288,LiSi2Ir,2.5045394344985463
mp-1028370,BaMg14Ni,0.15191124187499971
mp-868619,LiMnVO4,0.0231226778571596
mp-555286,CsNb(PO4)2,0.0
mp-1094906,Ca5Mg,0.05801873458333363
mp-30133,Ba(CuTe)2,0.013587052500001915
mvc-12731,Ti4ZnS8,0.08519875211538874
mp-22994,LiIO3,0.004725412499996473
mp-4802,La4Re6O19,0.0
mvc-2275,Mn9Zn2O13,0.10303206083333903
mp-21617,In2Cu2O5,0.05280607055555642
mp-1032306,SrMg6CoO8,0.18746087406249945
mp-853256,Li3Fe2(PO4)3,0.014864527874999034
mp-672338,Cs(Bi2Te3)2,0.0
mp-504567,Mn3(CuO4)2,0.026178939743587648
mp-983586,Ac2SiHg,0.0
mp-767625,LiVF4,0.05544323708334265
mp-19604,NaMnAsO4,0.0
mp-567424,K8NbAs5Pb,0.0
mp-556334,Na3Ce(PO4)2,0.0
mp-30067,Te3Pd10,0.14712696313895712
mp-606675,MnGaNi2,0.004643517857142676
mp-763616,La4Mn4O11,0.05607748184211303
mp-555411,SiO2,0.5522027345833331
mp-505794,ScH6N2Cl3,0.0
mp-626750,SrH4O3,0.05317063937498912
mp-766105,NaV4O10,0.039200180222213284
mp-1096409,LiZnHg2,0.6755443387500002
mp-1073933,Mg6Si5,0.22335969515151533
mp-28480,Sc2NCl2,0.0
mp-973826,LiHoSn2,0.12878589802197735
mp-767481,P4WO13,0.04785751249999848
mp-7131,PrTe,0.09448815000000099
mp-1097532,MgZnPt2,2.2000674837500003
mp-560188,Ba4NaAuO8,0.19112735787202687
mp-559078,SrVF5,0.0
mp-637472,KUCrO6,0.0
mp-557510,Cu3TeS3Cl,0.028055906367188577
mp-26629,LiTiP2O7,0.05575943668612915
mp-865565,CsSn3,0.05663732504523189
mp-773221,Li5Cr2Co5O12,0.08552941250000058
mp-764120,Mn12O7F17,0.07423023024306019
mp-570097,Sr(Li2P)2,0.0
mp-28842,Si3PH9,0.0
mp-10187,TeIr,0.29070440000000103
mp-22220,LaLuO3,0.010218143375000821
mp-580140,Nb6Co16Ge7,0.0
mp-9579,AlTlSe2,0.01249847281250016
mp-866119,Tm2RuPt,0.0
mp-542443,TlCr3S5,0.0
mp-569078,Si2H18C7N2,0.11349649864942535
mp-636757,Na3CrF6,3.995299999992597e-05
mp-865183,MgGaAg2,0.0
mp-3721,SrHfO3,0.0060859684999989856
mp-1039230,Ca3Mg,0.0647392225000003
mp-772701,Li3Fe(SbO3)4,0.06562171973214515
mp-565229,Na3Mn4(TeO6)2,0.0
mp-571133,NbSe2,2.820749999887795e-05
mp-18444,Sr3CuRhO6,0.0
mvc-7614,CaCoSb2O7,0.18615618866882505
mp-27810,Ba(GeAs)2,0.0
mp-542449,Sc5Cl8,0.0
mp-565784,VOF3,0.0
mp-862334,Sc2IrRh,0.0002167724999999621
mvc-1923,Ti9O13,0.1428262177272721
mp-1034150,KRbMg14O15,0.2652542966532261
mp-761293,ZrCoO3,0.09177595399999916
mp-12879,Tb2Si5Rh3,0.0
mp-3861,Al(MoS2)4,0.026444256435897096
mp-561830,Cs2CoS2,0.04088986499999958
mp-13579,ErGePt,0.0
mp-768965,BaYCl5,0.05802258517856895
mp-1093946,BeGeIr2,3.032746345
mp-1094196,Mg2Sn,0.1161189966666667
mp-21576,Sc2Te,0.0
mp-776798,Li2MnVP2(HO5)2,0.02027071532405955
mp-25634,Li3V2(GeO5)2,0.05649537617651035
mp-18956,SmCrO4,0.0
mp-556237,KLiYF5,0.0003963064583309972
mp-720382,H12Cl2O13,0.0042024397685178645
mp-1037497,Mg30ZnCoO32,0.005577234843750389
mp-10344,Ba2PrNbO6,0.0
mp-1024,CaGe2,0.007034551666666999
mp-8921,Cd4P6SN12,0.0
mp-561492,ZnSb2(XeF4)6,0.0
mp-31033,HfF4,0.0
mp-1094256,Y3Sn,0.2822570791666665
mvc-16243,AlFeO3,0.028905934750001805
mp-20472,LaRuO3,0.04789089716666695
mp-975056,Rb3Al,0.34720163500000023
mp-669410,K2Mn(SnSe3)2,0.0
mp-1027600,Mo3W(SeS3)2,0.028205029166666232
mp-23626,RbLi2(IO3)3,0.0
mp-772158,Ba2LaI7,0.05435276499999997
mp-28449,CsTbF5,0.0
mp-28511,Zr2P,0.007251073185187806
mp-866061,CaSmZn2,0.0
mp-21148,PrInCu2,0.013446877499998957
mp-685609,Cs10(Mo2N5)3,0.0
mp-770421,Li6Mn3Ni(PO4)6,0.056321603624940764
mp-1009007,LuSb,0.3295299499999995
mp-1056579,Si,0.4848411400000003
mp-755177,EuSeO3,0.0
mp-775382,Li5V3P8O29,0.03435904646294752
mp-1097018,CrN2,0.32626457108166385
mp-567107,EuHg2,0.009779386666666669
mp-1094028,TiSiAg2O5,0.057806932499999235
mp-12609,LiCa6Ge,0.19379094140624967
mp-1031610,Mg6NiCO8,0.5137453328125003
mp-677636,Sr22Nb10O47,0.08539891569620561
mp-12052,Er4Sb3,0.02810008964285516
mp-680133,CdI2,0.0014645239477122376
mp-771276,LiMnB2O5,0.043064408368168834
mp-850910,Na6V2As(CO4)4,0.04777229184266485
mp-505767,K2NaInSb2,0.0
mp-770146,Li3Mn2P2(CO7)2,0.03037425086956792
mp-866164,YMgHg2,0.0
mvc-2202,Co(PO3)4,0.06238599937500844
mp-555052,MnSb2F12,0.0
mp-20581,Ca3In,0.06463697062500008
mp-554298,Cu2As2O7,0.006198585984852123
mvc-7720,ZnCoBi2O7,0.1636236644617215
mp-1086656,Tb(NiSb)2,0.07409857299999789
mp-763006,LiMnF4,0.09333875416665638
mp-1064529,RbN,1.5014694716666663
mp-630491,KV(IO4)2,0.0
mp-6140,PrNi2B2C,0.0
mp-1029015,Te2MoWSeS,0.08136292833333414
mp-706624,H9OsN7Cl2,0.28846402362596546
mp-866638,KSc(BH4)4,0.0
mp-14921,Zn4B6SeO12,0.0
mp-770519,Li2AlVO4,0.08918839468750228
mp-1095163,Pt(Cl3O)2,0.8520680029629597
mp-770357,Li2AlNiO4,0.07913158687499777
mp-763340,Ti3Fe2P6WO24,0.036263381450631016
mp-1018136,LaBiPt,0.0
mp-1097304,Mg2CuIr,2.249051183755483
mp-686585,K6Al11Si13Ag5O48,0.1705822635768035
mp-1079720,AgO,0.03727762875000185
mp-972935,ScZnNi2,0.012251936753246541
mp-1036900,Mg30NiSnO32,0.0699046394531253
mp-27901,K4MnCl6,0.02702766818181645
mp-705298,Co3SnC12BrO12,0.3660177179310367
mp-554168,KRb2MoF6,0.0
mp-567498,Rb2NaTmCl6,0.0
mp-546118,NaClO4,0.11144254333333324
mp-1023940,MoSe2,0.0002638100000007526
mp-1096469,Hf2RePt,4.015576239375
mp-18901,VAgHgO4,0.026772930357143558
mp-557285,Ho11Te16ClO48,0.0
mp-1018797,MgAgSb,0.02300520166666864
mp-1076895,K5Na3Ta2Nb6O20,0.17475574328703747
mp-976881,Ni3S,0.3697277518750006
mp-1031738,HfMg6CoO8,0.3303662020312492
mp-1094390,MgTi,0.17733879291666632
mp-601243,ZnH8C4(NO3)2,0.5857865939880931
mp-973921,Lu2Ni12As7,0.0
mvc-4633,Al(FeO2)2,0.4289048974999998
mp-861882,LiGeIr2,0.0
mp-771235,CsLa3O5,0.01918135842592772
mp-753541,LiCuF4,0.04412199333332634
mp-13532,La2ZnNi2,0.005585517000000095
mp-865920,YbPmZn2,0.0
mp-778296,LiNiPO4,0.02656779321428981
mp-1096172,Li2GaSn,1.5004193020833334
mp-558689,Ba2PrIrO6,0.00013868299998165412
mp-771685,V4SnO12,0.03987401220588893
mp-707334,K7P6H2NO22,0.019484650263158262
mp-973748,LiIn3,0.006096409999999608
mp-761475,Li2Fe2Si5O13,0.03350430386363268
mp-3247,Cs2TiS3,0.0
mp-1096169,Cd2AgPt,1.4186443537500002
mp-780900,LiMn3(BO3)3,0.09745128110675694
mp-505731,Ba2Co(PO4)2,0.0
mp-755350,BaLaI5,0.026381985178571377
mp-673844,Cr(FeSe2)2,0.23768002
mp-565994,WO3,0.0004623843749982369
mp-541484,Rb3Cr(HO)6,0.7983580957812499
mp-10667,SrAgP,0.0
mp-574684,Na2SnAs2,0.0
mp-29295,Sr3Sb4S9,0.0
mp-1009490,O2,0.0054179337500004365
mp-7123,KSb(PSe3)2,0.0
mp-766678,Li3Cr(Si2O5)3,0.04113394659998537
mp-650392,FeSiO3,0.01816969883332576
mp-37207,Li5GaO4,0.1767963554999996
mp-983365,K3Hg,0.06003247624999996
mp-1061635,MgNb2,0.3235762966666673
mp-1046,NbSn2,0.0
mp-16821,Ba3PrRu2O9,0.0
mp-560029,Y3BrO4,0.0
mp-764566,LiFe8(BO3)8,0.07420948713413722
mp-765861,Li3V3O5F3,0.0756265283928732
mp-1094269,ZrSn,0.2542852041666652
mp-770830,HoBiO3,0.03553254499999792
mp-780492,Li4VP6(H4O11)2,0.06288413869222165
mp-685002,Sr2Er2Al3Si5N11O3,0.4591119012980753
mvc-10144,CuSbO4,0.23088914744791825
mp-25046,MnPH2O5,0.0
mp-20215,LaS,0.2785815024999998
mp-569331,Li(Sn3Pd)2,0.004826199537037113
mp-1094593,LiMg2,0.01635785333333195
mvc-8630,CaTi2(PO5)2,0.05648021606666554
mp-1078884,HfSiRu,0.0
mp-559146,La2MoO6,0.06029816166666356
mp-758218,LiTiP2O7,0.09117999009522038
mp-566372,K2UCr(IO6)2,0.0
mp-784,KZn13,0.0
mp-755985,Eu3ReO8,0.0
mvc-16454,Ca6MnN5,0.0
mp-761399,LiCrPO4,0.055197088809524786
mp-851033,LiCo3OF5,0.08223405275000051
mp-997084,RbAgO2,0.04834745750000025
mp-865612,LiCd3,0.0
mp-695805,Li2FeP2O7,0.02277787152778199
mp-18684,KPF6,0.001084032499997889
mp-779054,LiV2(OF)3,0.08799494376543837
mp-541473,Sb(OF3)2,0.3234094629861097
mp-1080709,NdAu,0.0053473575000007045
mp-1094145,Mg2Fe,0.15313076583333052
mp-771460,TiCo5O12,0.07379827777778036
mp-1017565,In2Se3,0.05047130233333297
mp-1028376,HfMg14Ni,0.11904433156250027
mp-972274,Tm2ZnHg,0.013011834999999916
mp-13000,Ba2HoTaO6,0.0
mp-1094460,MgZn2,0.12245791666666705
mp-772587,Sr4Li4Nb5FeO20,0.01833659374999641
mp-1023329,CaMg6Zr,0.05955206937500001
mp-1021397,Mg6NbSn,0.1505432829166664
mp-766230,Rb2NaZn2H5(C2O7)2,0.0
mp-654937,Ag(CO)2,0.4226351320000026
mp-28109,SbAsO3,0.0
mp-1026816,LiMg14Cr,0.08087478124999993
mp-540118,MnPO4,0.06764449249997108
mp-764168,Co6O5F7,0.0796779807638881
mp-1094110,Ni5Cl6,0.32256463090909016
mp-558942,CaFeClO2,0.0
mp-773695,La16Mn15O48,0.010370010569619836
mp-1017095,Mg6GaBi,0.07499898937500005
mp-777528,Li3VF6,0.0512365463333353
mp-767707,Li2Fe5Si5O16,0.048076471339284055
mp-1080664,CrB,0.0
mp-542553,Cu3As4H18C8Br3(NO2)2,0.18803854203373133
mp-1094448,Mg2Zn,0.07622153360000072
mp-1023959,TeMoS,0.07890066833333352
mp-973924,Li(Mg4Al3)4,0.027102531485411863
mp-767928,Li3CoPCO7,0.05258710846153125
mp-744605,CoPH4ClO3,0.1073806896874938
mp-1078814,Ce2C2Cl,0.0
mp-1017309,NaMg6Cr,0.21257946187499988
mp-30719,Mg2Hg,0.0
mp-21536,Ni2Mo4C,0.0
mvc-6290,MgCuSb2O7,0.22516245121212464
mp-7479,RbYbO2,0.17472056624999954
mvc-16014,Al2V2O7,0.4228834536363593
mp-1078758,Sr2NiRuO6,0.0
mvc-3793,Ca2Ti2O5,0.08159393625000355
mp-776712,Li2FeO2F,0.10133170749999998
mp-13034,MoN,0.3253130193750007
mp-570935,LiI,0.0
mp-569637,La4C2Cl5,0.0
mvc-3826,AlBiO3,0.23459749362499416
mp-18179,Cd4SiS6,0.006585782727271727
mp-9776,YbAgGe,0.0
mp-568864,RbCrCl3,0.018722073944441142
mp-867903,LiLuAu2,0.0
mp-531459,MgAl2O4,0.05059491071428468
mp-12562,CeCu5Au,0.0
mp-778702,Mn6O7F5,0.07949025076390638
mp-557772,CsNiF3,0.0
mp-30873,Th5Sn3,0.012231313750000085
mp-764845,LiVOF3,0.013372915039691513
mp-6607,Ca5Si2SO12,0.004183413125001145
mp-1094636,MgGa,0.28635812937499994
mp-625199,ScHO2,0.2067781725
mp-1034537,Mg14VCO16,0.2521447335351548
mp-765957,Li6V2O5F2,0.10033148499999722
mp-1022636,CsYMg6,0.32853383375000056
mp-981383,ScSn3,0.0939280775000002
mp-542454,Mo2As3,0.0
mp-706608,KPH3O3F,0.009087044917991172
mp-1018696,EuCdPb,0.0
mp-864597,LiMgTl2,0.0
mp-1029572,CaTiN2,0.0
mp-1079566,FeCuSe2,0.12843466874999976
mp-1023281,Mg6AlSb,0.09789825168269273
mvc-8428,CaNi2P2O9,0.06851687514881633
mp-704959,CrP2O7,0.07758275181249186
mp-743617,KMnH4Cl3O2,0.0
mp-775243,Mn3Nb2Fe3O16,0.09050154934895717
mp-1025448,YPt,0.0
mp-25483,LiCo(WO4)2,0.06603930145833381
mp-765894,Li5VF8,0.04654739345237502
mp-505803,MnFeAs,0.053872141111110494
mp-558325,K2YNb5O15,0.02758699623188221
mp-767106,Li5Mn5O9F,0.04269819649999995
mp-777312,Li4Sn2P4H3O16,0.06576228314655186
mp-9024,LuSiAu,0.0
mp-769399,BaTa4O11,0.0025585401562508987
mp-850455,LiFe4(BO3)4,0.07116934607142866
mp-774473,LiNbCuO4,0.11372973035714028
mp-777305,LiFeF3,0.05242590399999525
mvc-13997,AlVO3,0.321256814624995
mp-1021364,KMg6Nb,0.3058897075
mp-763098,Li2MnF4,0.09123440000000027
mp-865254,TbYbHg2,0.0
mp-505306,Eu2Sn2O7,0.0
mp-1017631,ScBPd3,0.1595104760000039
mp-10848,AsPdS,0.0
mp-1074934,Mg3Si4,0.21837621761904727
mp-569338,YbAlPd,0.0
mp-570655,Tb10B7C10,0.013709408020825542
mp-7226,V3Ni,0.0
mp-972650,SmDyRh2,0.014301889999999597
mp-556905,GdMg(BO2)5,0.0
mp-7795,RbSnS2,0.1167896671875024
mp-1019262,Ta2N3O,0.9690010093122208
mp-16228,YS2,1.5496448715451399
mp-1030934,LiCeMg6O8,0.1344762953906251
mp-723145,K2P2H2O7,0.4898371298077056
mp-532178,Yb4Zr3O12,0.03657847289473537
mp-674478,BaCO3,0.050085788999994385
mp-1038590,Mg30NbCO32,0.17980067504817754
mp-1079090,Er3Sn7,0.0
mp-9539,EuMgF4,0.05984223083333351
mp-28759,Al7(TlS4)3,0.0
mvc-3610,Mg3Mo2O7,0.061658484999999714
mp-760403,CaCd3O4,0.0
mp-1078638,Ca,0.04681235374999981
mp-763802,Li5Mn3F14,0.0566126688636297
mp-867338,AcCdAg2,0.0
mvc-3935,Si3(WO6)2,0.13768160926469974
mp-715493,V4O7,0.2013687138636442
mvc-16413,Zn2Mo3O8,0.09317748269230908
mvc-6531,Ti2ZnO4,0.2780227692857178
mp-1028331,Mg14CdNi,0.05739156187499982
mp-760533,SmZr4O9,0.09864586382143337
mp-2724,TbSb,0.0
mp-638035,SiO2,1.8287575027777736
mp-566488,Na6U(Mo2O9)2,0.011990388879309144
mp-5748,HfAlNi2,0.0
mp-973953,NdCl2,0.09050534361111227
mp-770025,Na2MnBPO7,0.06984112743488867
mp-553924,Ag4PIO4,0.0
mp-1096461,HfBeAu2,2.463583737307688
mp-779177,Li3MnV(PO4)3,0.0551524110624646
mp-1036389,CaMg14SnO16,0.13964169460937548
mp-780246,Na2Bi4O7,0.010150294038457908
mp-18429,KAg(NO3)2,0.0
mp-683945,KEr3F10,0.002458092857144933
mp-17057,Sr2SnSe3F2,0.01222104281250225
mp-760927,NaTiPO5,0.017462023262498683
mp-684876,Te40Rh31,0.27928078802816714
mp-628599,YbBi2IO4,0.0332118623090274
mp-9186,CdSeO3,0.009844299999998364
mp-698416,CdH12C2(NCl2)2,0.04232321642857162
mp-4960,Li(PrGe3)2,0.08731962555555484
mp-772290,LiAgO,0.0
mp-560560,CdSiO3,0.0
mp-1093855,Ca2MgCd,1.503920310625
mp-780039,Na2FePCO7,0.0
mvc-15669,MgBiO3,0.1230840356666656
mp-675511,Sm2PbS4,0.04230206142857185
mp-999264,ReN,0.3899346583333365
mp-31487,NbI5,0.017869000000000138
mp-8951,SmAsPd,0.0
mp-561486,Na2Mg5(PO4)4,0.003273994444447759
mp-566589,Ca4Mn3B3CO15,0.0
mvc-7970,ZnCoAs2O7,0.03155969526515001
mp-27373,SnClF,0.0
mp-1040125,LiMg30BO31,0.08517856305657913
mp-1028206,KMg14Al,0.11452796802884645
mp-27349,BSF7,0.0
mp-766996,Fe4OF6,0.06784854727271927
mp-771488,Li2MnAsCO7,0.02479724704860864
mp-851035,NaV3O8,0.022392317500003145
mp-1036503,CsMg14AlO16,0.32071738406250017
mp-570928,U4Ga12Rh,0.0
mp-962062,BaSrSn,0.40896016875000063
mp-21552,Na2GaCuF7,0.008905658030300856
mp-32102,LiMo2P2O11,0.003356369374982293
mp-762854,Li4Mn2Ni3O10,0.060015404473677585
mp-764735,Li5Mn2Cu5O12,0.07783892624999655
mp-762486,LiFe(PO3)3,0.043633449285721326
mp-13430,Nd2AlCo2,0.019589119933333343
mp-1027911,Te4Mo3WS4,0.11732771333333235
mp-773290,KVPCO7,0.04842559727273255
mp-1033792,Mg14CrCO16,0.2496826682226585
mp-770784,Li3Fe(CoO2)4,0.06371362781250056
mp-1040450,Li5P(S2Cl)2,0.008228242291663967
mp-758245,Li3SiBiO5,0.05790741287499921
mp-559019,Nd6S4BrN3,0.0
mp-7467,RbCuO2,0.0
mp-34284,NaNdF4,0.0
mp-29927,Pb7(BrF6)2,0.012224680952380496
mp-771627,Li5Mn3V2O10,0.05622672862500089
mp-569176,Fe3Se4,0.08119946785714305
mp-8324,Dy2S2O,0.007927636249999814
mp-1096900,CrN2,0.4496712900399977
mp-1084770,K2BiAu,0.0
mp-573080,As3H9RhC3(ClO)3,0.16571717374999118
mp-975037,Rb3Ba,0.1465130025000001
mp-1073733,MgSi,0.28020081138888875
mp-1079758,TbHO2,0.0
mp-768522,La2Ce2O7,0.09062030409090838
mp-20984,Ce3In,0.0
mp-849498,Li5Mn6(BO3)6,0.037026193690456566
mp-23222,Li3Bi,0.0
mp-763880,Li2VCrP2(HO5)2,0.0008034555555553878
mp-742801,V2CuH6(NO3)2,0.11067068677882476
mp-977176,NaTcO3,0.0
mp-569509,Er2Co7,0.007726011868687266
mp-1036772,Mg30VCrO32,0.01682515640624871
mp-19226,NaFePO4,0.0
mp-653586,CuS4(N2Cl)2,0.2156735827708971
mp-13287,BaCuTeF,0.0
mp-771111,Li2Fe3NiO8,0.0938112092633947
mp-16226,TaS2,0.008999068333340077
mp-764469,LiFe2(BO3)2,0.05946617017047906
mp-540905,YAlGeO5,0.0
mp-4906,Te2SO7,0.0
mp-1072381,LuNi4Au,0.0
mp-556051,Rb2GeO3,0.0
mp-763494,Li3V2(O2F)2,0.09566671253786564
mp-1025450,CeFeSi2,0.0
mp-1093624,CrTc2Ge,3.5575963899999987
mp-561813,Cs2MnS2,0.0
mvc-13333,Ca(Fe9O13)2,0.1494512163888846
mp-1094618,MgGa5,0.05390293374999988
mp-753279,LiAg5F12,0.03352080388888945
mp-1025664,Te4Mo2WSe2,0.027866696111110482
mp-20715,Pr2InGe2,0.0
mp-20532,PrSb2Pd,0.0
mp-669326,CdI2,0.00155825837037038
mp-771193,Ba3Y2O6,0.09217170568181388
mp-779902,Li3V2P4(HO8)2,0.02025426759258231
mp-571448,Cs2PuCl6,0.0
mp-1038878,CeMg3,0.0034983499999996504
mp-770372,CeHfO4,0.047192222083330286
mp-1024043,CaMg3O4,0.13682417125000154
mp-21293,Li3In2,0.0
mp-625663,ScHO2,0.005153536249999925
mp-1097239,Be2NiRu,3.206902021666667
mp-11151,NaPrTe2,0.0
mp-778774,Li4MnH6(S2O9)2,0.058564815265151886
mp-3074,KAgO,0.0
mp-1016235,CaMg3,0.11247540124999887
mp-10027,TiSe,0.26458101531249945
mp-1057017,KC,2.3307329768750016
mvc-4385,TaZn2MoO6,0.07927927999999795
mp-1025578,Te2W3(SeS)2,0.06639148583333387
mp-705911,MoH17C5(NO)4,0.1735853919758057
mp-1026419,HfMg14C,0.4320106425000003
mp-2159,DyTe,0.0
mp-1019799,K8NO3,0.2011062234722214
mp-1061831,AgB2,0.5237538555555554
mp-755867,Lu2Sb2O7,0.08932798034092393
mp-752474,NbOF2,0.15571751295832925
mp-1076205,K4Na4Mo3(WO4)5,0.2688232349305553
mvc-8937,CaLaTiFeO6,0.0
mp-770131,LiFePCO7,0.06498881630682085
mp-680472,NaMo6Br13,0.011222742500001992
mp-5827,CaTiO3,0.06431194324999723
mp-698711,Sr9NdFe5(MoO6)5,0.007798096800000209
mp-565380,BaYMn2O6,0.0684156231666666
mp-570860,DySn3,0.040772361874999774
mp-758086,LiSn(PO3)3,0.04636629627976152
mp-30986,Zn3S2O9,0.0
mp-556703,Ba3Mg(SiO4)2,0.01834189791665964
mp-754134,HfZrO4,0.03948613124999767
mp-1033258,Mg6GaBO8,0.4824629094791684
mp-1022804,SrYMg6,0.06473811906250138
mp-28264,RbH3O2,0.0
mp-1096963,CuH6CI3N,0.03920128687500935
mp-557882,BaCr4S7,0.0004625693749931159
mvc-10455,ZnCr4O9,0.26808137724702785
mp-17382,Rb2Si3SnO9,0.0
mp-765208,LiVF4,0.06793403444445456
mp-997581,H6C6NO,0.22291165049106976
mp-1076409,Sr8MnFe7O20,0.010551307916705
mp-1095938,BeNbOs2,3.9307197149999977
mp-31630,Ba2TaCrO6,0.0
mp-10257,Ni,0.02727408500000017
mp-1097087,HfCdAu2,1.9835266337500004
mp-2620,DySi,0.0019823062500003985
mp-18892,KBaVO4,0.0
mp-571406,Ga2Pt,0.012144198125002779
mp-1099271,LaMg6Zn,0.11264557171874978
mp-1035892,Mg14FeSnO16,0.10807040500000033
mp-29947,K3PSe16,0.0020721495937494607
mp-1074792,Mg7Si4,0.2101581667676773
mp-1070247,BaGe3Rh,0.03780801850000071
mp-5388,Zn(SbO2)2,0.013033540000001231
mp-569535,Ca2Bi,0.0
mp-13852,Ge3N4,0.0017535478571426564
mp-765705,NaV5O8,0.1018687637500122
mp-706847,Na17(WO3)19,0.0
mp-1033429,BaMg6CrO8,0.3987138180729151
mp-979414,WSCl4,0.004018886958332857
mp-505535,B8Ru11,0.09129581587719393
mp-554999,ZnS,0.0006727343749961534
mp-10186,PuSi2,0.013639763333335608
mp-558602,CsAl3(P3O10)2,0.0
mp-1035172,Mg14ZnNiO16,0.006295726406249536
mp-620862,LiTl3(MoO4)2,0.0022860113492049194
mp-557809,SbSCl9,0.0
mp-761809,RbHoHS2O9,0.08061031745535985
mp-766073,Li3V3P8O29,0.05762828584302681
mp-24601,Al3Si2H3O10,0.024164511111109732
mp-772744,Tm2P4O13,0.04102185052631668
mp-566812,Sr9LuV7O28,0.0
mp-1084832,Fe5Co3,0.5329874384374982
mp-560102,RbUSO6F,0.0
mp-744482,MoH4O5,0.14211344799999814
mp-7785,CsCu4S3,0.05293099604166685
mp-626357,FeHO2,0.1337381365625001
mp-771174,Ba2B2O5,0.01137909472222276
mvc-9795,Ba2AlW2F11,0.28217252334373377
mp-1013551,Ba3P2,0.44681155374999904
mp-567478,MnSbSe2Br,0.0
mp-776653,Ni6OF11,0.035927260254628564
mp-766026,RbCuSb2H2Se4O,0.01180472606060512
mp-771587,Li7Mn3(WO8)2,0.07701905560267175
mp-650715,Gd2Be2GeO7,0.0
mp-2150,BaTe2,0.003169791666666644
mp-752602,BiBr3,0.0
mp-705798,La14Mn15O48,0.02839522747158796
mp-559053,NaY(SeO3)2,0.0
mp-643643,BaH2CSNClO,0.09028343889740588
mp-772082,CaLaI5,0.024773558571427046
mp-40206,Ca2Nd2Nb3FeO14,0.0183407577272714
mp-1095812,LaZnHg2,1.5190698819999993
mp-767577,Li4V2Si3O10,0.05590013640688163
mp-10751,Dy,0.13943916333333295
mp-704204,Li2MoP4O13,0.05111601833336277
mp-1029504,KNbN2,0.0
mp-762484,Li2Ti3VO8,0.0913566094643059
mp-4190,CaSnO3,0.0
mp-566131,KCrF3,0.026989624000001367
mp-505813,Ba5Co5ClO13,0.0672422310416545
mp-570554,Tb(PRu)2,0.0
mp-763056,FeOF,0.09811043833333156
mp-1026592,CsMg14Cd,0.17704983500000004
mp-776371,Li2Nb2(PO4)3,0.11237960939473536
mp-560409,P3S3N6F5,0.05673781567666581
mp-17451,Nd3ReO7,0.04976254443182171
mp-19638,KSrVO4,0.002521371785713989
mp-771562,Li4TiCr5O12,0.08599036148990358
mp-34932,CaHN,0.0
mp-1016852,BaMnO3,0.10965142566666143
mp-568857,RbCuCl3,0.012192618999999905
mp-720417,CuH10SO9,0.25541108047618977
mp-1020106,LiB(SO4)2,0.0
mp-767432,Sr16V8O31,0.0
mp-569711,K5Nb(CN)8,0.1453107168693144
mp-558894,Ba4Ti2PtO10,0.0
mp-677065,TaOF3,0.2832852448000045
mp-759307,TiNb2O7,0.0065075532500245
mp-971669,FeSb3,0.0
mp-20187,LiInSe2,0.0
mp-555735,CaIrO3,0.0261963895000008
mvc-10202,HoMg(FeO3)2,0.061911409562501525