mpid,formula,e_hull
mp-1070912,CsV2S2O,0.07702520909722299
mp-754599,BaTm2O4,0.0
mp-1079752,SnPS3,0.04571974300000026
mp-757639,LiTi(PO3)4,0.06469687565078974
mp-555617,Ce10Si8O3,0.00641902916666659
mp-8697,ScBO3,0.0
mp-673702,Na2CeO3,0.03220877999999683
mp-867260,CdAgPd2,0.0
mp-556561,LaFeO3,0.10195372150000104
mp-558237,NaZnPO4,0.0
mp-22876,CsI3,0.0
mp-12798,Ni3Pt,0.0
mp-1034517,Mg14NbVO16,0.12123454984374947
mp-772513,LiCr3O8,0.04309713899305745
mp-39739,CaHoMn2O6,0.015304995333337956
mp-1019093,PaP2,0.0
mp-669466,AgNO3,0.004543829500000207
mp-555823,SiO2,0.7861760574999987
mp-753319,Li3Nb4SnO12,0.08884827299999465
mp-558133,Rb2MnF6,0.004422020000000693
mp-998800,RbInBr3,0.014791309500001846
mp-19272,TbCrO4,0.0
mp-10998,Yb2Ge2Ir,0.0
mp-19591,Mn4SiO7,0.05457326593751155
mp-651344,K2NaFeF6,0.0
mp-980189,NaYb3,0.07694425125000004
mp-1080856,CeSe2,0.5375057772916678
mp-8018,K2RhF6,0.0
mp-705083,NaFe2(MoO4)3,0.007380928402763942
mp-559469,CaH6C2O7,0.035083820937497734
mp-1093647,MgZnNi2,2.1214831729166668
mp-868755,LiNi(PO3)4,0.08543562498843915
mp-1097907,MnHO2,0.08122270320312898
mp-31946,LiMnPO4,0.04756278928570712
mp-775993,TiMn2Fe3(PO4)6,0.017545027291648196
mp-19851,KInTe2,0.0
mp-1032044,Mg6ZnSnO8,0.22252596312500028
mp-616387,BaMo2(PO4)3,0.013736930972205741
mp-541899,CsCdBr3,0.0
mp-616702,Na10Co4O9,0.0
mp-1097473,LiMnIr2,2.9056738400000004
mp-653560,NaSr2CrF8,0.0008753787500301867
mp-376,PrSn3,0.0
mp-1077243,K2Zr,1.309714926666666
mp-27307,Na2ZrF6,0.0
mp-756336,CaEu2O3,0.10010796916666642
mp-627442,Ge7H18O23,0.07564670380208405
mp-542568,EuAg5,0.0
mvc-8272,CaAs2WO7,0.08131038636366839
mp-582024,Cs3Cu2Cl5,0.0
mp-1030664,NaMg6BiO8,0.2116492875000029
mp-6660,BaNaBO3,0.0
mp-29977,Rb3BS3,0.0
mp-977398,TbCdAg2,0.0
mp-861565,Mn7(OF3)3,0.09350633368420168
mp-774116,Li2Ti3CoO8,0.09948592821428726
mp-27561,Rb9O2,0.0
mp-865916,TiVRe2,0.0
mp-542533,CsNaB4H12O13,0.009589944435483666
mp-23098,ReNClF5,0.02557341157750148
mp-26113,LiTi(PO3)4,0.02126378509523353
mp-560976,KNiF3,0.0
mp-979009,Th3Be,0.3379890952884628
mp-1077287,EuOF,0.0005870500000000334
mp-773770,LiMnF4,0.032999034583322207
mp-721144,Na4P2H20O17,0.36984701633720896
mp-652196,Cu2Bi4Pb2S9,0.009070718676469802
mp-767118,Li2Mn2OF6,0.08309489784090651
mp-559480,Sn5W8O23,0.14798837826388225
mp-1096549,SiGe,0.01990391062500052
mp-1040411,CsHfMg30O31,0.16530838942460413
mp-560240,K2SbPO6,0.0
mp-1094275,MgTi2,0.07786909555555699
mp-773257,Mn4NiO8,0.08604379043269628
mvc-14233,MgCoF4,0.11419563416666635
mp-569515,Hg3C2(N2Cl)2,0.23719819981636456
mp-972,MnSe,0.015381347499999976
mp-22775,Sr(Sb3Ru)4,0.0
mp-1039305,MgBi,0.06216044583333336
mp-38771,Gd2MgS4,0.07346018142857247
mp-1093738,TaGeRu2,3.4575007830208317
mp-22395,KCeSe4,0.010907729166666158
mp-64,Ce,0.03925355500000016
mp-776314,Zr2N2O,0.005671445750000004
mp-746774,Mn2CuH12(NO2)4,0.6587065414992557
mp-1023275,Mg6AlCd,0.05011278855769241
mp-17887,SnP2O7,0.0403362297499994
mp-570995,TiHg6As4Cl7,0.0016078747222230128
mp-1093852,YScPt2,2.5969208250000007
mp-555089,SrLi4Ca(SiO4)2,0.0
mp-554463,Na3LuSi2O7,0.0
mp-770311,Li4AlCr3O8,0.008340435781250655
mp-541559,Cs2MnO4,0.0
mp-7589,Mg2NF,0.0064596901041671356
mvc-9889,LaZnCrMoO6,0.11908130733332635
mp-540691,Ba3YIr2O9,1.1109178258541599
mp-973689,Ho3Lu,0.0008897375000005425
mp-541312,Ge3(Te3As)2,0.004947155454543939
mp-554523,TeBrO3F5,0.0
mp-850989,V2(OF)3,0.018729938541667046
mp-1096601,LiPRu2,2.923373119166667
mvc-4658,Ca(SbO2)2,0.3235619674404777
mp-565979,MnBiAsO5,0.0
mp-771752,Na3CrBPO7,0.0138458262225285
mp-601,PrP,0.0
mp-853214,Li3Mn4(BO3)4,0.042665588514473995
mp-862376,Sc2CuTc,0.0
mp-5338,ZnSeO3,0.0
mp-510377,EuBRh3,0.01904341499999873
mp-780681,LiFe3(SiO4)2,0.05718264488095137
mvc-366,Zn(Sn2O3)2,0.344437886590911
mp-764068,Li3V3P8O29,0.0455891280523284
mp-10049,MnAsRu,0.0
mp-9238,Ba2UCuO6,0.010697556999977207
mp-850159,Li2Mn(Si2O5)2,0.05375004264705829
mp-1034944,SrMg14ZnO16,0.09287236953124987
mp-18850,BaYMn2O5,0.0
mp-1080796,PuIn7Pt2,0.3097693509999999
mp-640389,Cs2Th(PS3)3,0.0
mp-867022,CaSnS3,0.19720046941666602
mp-743783,CoP4(H5O8)2,0.002513384462342394
mp-560616,KCO2,0.013263000312500495
mp-27942,Pb2ClO2,0.06931186649999965
mp-36600,Ag3SBr,0.04470550100000015
mp-5079,KSbF4,0.0
mp-1021276,LiMg6Cd,0.015856299374999994
mp-771360,Li6MnSn3(PO4)6,0.06780088985416821
mp-29468,Rb6Cl4O,0.0
mp-1087495,Tc3B,0.0
mp-978283,Mg3In,0.017872604999999986
mp-567698,CsTiI3,0.010588527555555505
mp-973850,HoGa3,0.004106665250000141
mp-4024,DyAgTe2,0.0
mp-9666,K2NaGaP2,0.0
mp-543097,MnAsO4,0.03313308354168232
mp-850971,LiMnBO3,0.005055994027780564
mp-28638,Gd2CCl,0.0
mp-1023003,KMg6Mn,0.32313142000000017
mp-972966,Sc2OsAu,0.006184560694443952
mvc-309,Sr2TaCu2O7,0.3142790441667049
mp-755595,Er2TiO5,0.0711080059375
mp-3269,NaTh2F9,0.006156226875000392
mp-780411,LaAlO3,0.09319992316666692
mp-974372,Rh3Se,0.3175628843750005
mp-861601,PuPd3,0.5763952950000002
mp-867826,DyMgHg2,0.0
mp-762458,Li6Cr3P6WO24,0.06044520984373757
mp-27277,PCl3O,0.0
mp-1039707,RbHfMg30O31,0.1309425664087307
mp-1027549,Mo3W(Se3S)2,0.02767193499999987
mp-769802,Ba2Zr7O16,0.02750205460000465
mp-763668,Li2Mn3P9O28,0.05271931946425301
mp-758056,LiTi(PO3)4,0.10549913370634556
mp-570759,Tb4Bi3,0.029020617500000512
mp-1024948,LuZn2,0.0
mp-767108,LiMn2(PO4)2,0.07105816057692405
mp-775373,Li4V3P8O29,0.05062883098485305
mp-984552,BeZnO3,0.758619992749999
mp-4539,Ho(CuGe)2,0.0
mp-20159,Ce3SnC,2.0317142289999994
mp-13275,NaSrP,0.0
mp-771325,Dy2Cu2O5,0.05482527083332212
mp-777496,Li32Ti13Cr3O48,0.007016218750012904
mp-9550,ScMnSi,0.0
mp-24328,RbHCO2,0.07877772541666593
mp-1098247,RbHfMg6O7,0.3868101102499999
mp-972456,Sm3V,0.3666821231249999
mvc-7295,Zn(SbO2)2,0.12067283892857185
mp-561375,Pr10S19,0.0
mp-11101,LuInRh,0.0
mp-773074,LiZr2(PO4)3,0.03135873597221561
mp-3919,KBO2,0.0
mp-17137,Ba3ZnRu2O9,0.0
mp-19884,Mn3P,0.0006206424999994907
mp-1001611,LuTlSe2,0.0
mp-541084,Cs3V2Cl9,0.0
mp-756350,TiNbO4,0.0396729779273457
mp-556178,BaAl2(GeO4)2,0.0
mp-5104,CaZnF4,0.004434444166666829
mp-562074,CsK4TlO4,0.0
mp-705365,Li2V(PO4)2,0.05648252134615017
mvc-7881,MgCu3(SbO3)4,0.21365407475
mp-755065,Ce2Ti2O7,0.009614004318182271
mp-975190,RbTeO3,0.14638409800000307
mp-779359,Fe10O19F,0.11843134139583178
mp-623024,TiCdF6,0.0
mp-866339,Cd(PO3)2,0.006616361527778558
mp-4514,NaNbO3,0.01069435150000686
mp-29570,Ca2Si3Ag,0.0
mp-30635,Fe3Pd,0.09837020333333336
mp-2584,TbFe3,0.0
mp-559964,Ti6O11,0.007116327794099321
mp-4394,Pr2Sn2O7,0.0
mp-1086669,NiP2W,0.0
mp-1096685,Nb2CoTc,3.899100577142857
mp-1026662,RbMg14Nb,0.2531959162500001
mp-708992,AlH20C2S2NO14,0.055624151335232234
mp-998151,CaTlCl3,0.038912617000000704
mp-763692,Li2(FeO2)3,0.05134448244318257
mp-740717,LiH4SNO4,0.00033326749999762484
mp-972504,Sm2AlZn,0.01180065281250009
mp-540818,Tl2Ge2Se5,0.0
mp-755642,Li3VS4,0.03634252437499974
mp-998896,YC,0.8854906812500021
mvc-9298,CaW3O7,0.2768458043181834
mvc-13145,Zn3Cu2(AsO4)4,0.04818216630000016
mp-672259,AlFe2Mo,0.03616852583333241
mp-1094487,YMg,0.1422144999999997
mp-3076,LaSnPt,0.026213074166665958
mp-1036857,HfMg30CoO32,0.08457545582031313
mp-675199,NaPrS2,0.0
mp-989644,Cs2NaCaCl6,0.04573276450000074
mp-11541,ZrOs,0.0
mp-680706,Y13Sn31Pd40,0.0
mvc-2911,CaVO2,0.268541935
mp-1100882,Y7Ta3O18,0.03391244160714102
mp-764907,Li3Fe3OF7,0.06611318678571543
mp-1018125,Ti2Re,0.0
mp-1073720,MgSi,0.2502714863888884
mp-554636,Gd2B(OF)3,0.0
mp-982779,NbTe,0.2697873990625013
mp-699459,CsLiH4S2(NO3)2,0.05333158955285722
mp-9948,V5Te4,0.0
mp-764815,Li3Fe8(BO3)8,0.06105162155521704
mp-771736,Cd(CoO2)2,0.0
mp-24830,SiP3H29C10BrN,0.062284624474206574
mp-6051,K2Hg(CN)4,0.2594300502634308
mp-32066,LiMo2(PO4)3,0.0029000134721979265
mp-764347,Na2(NiO2)5,0.0031844565931411486
mp-1097496,CaYIn2,2.1173955125
mp-7846,Zn3P2,0.18381646699999976
mp-865368,Tm2NiOs,0.0
mp-677195,Nd10Si10BrN17O9,0.0
mp-864991,Ca2AgPb,0.0
mp-625391,NaH3O2,0.003248964791666253
mp-556330,Cs2Ga2B2O7,0.0
mp-30235,Lu3Ge3Ir2,0.0
mp-1040107,NaLiMg30O31,0.04498312261904669
mp-1100888,Zn(Fe2O3)4,0.02959656388890597
mvc-15683,MgSnF6,0.0
mp-6090,Na2Cu(CO3)2,0.0
mvc-7723,CaMn2CoO7,0.19386560125000066
mp-694683,Li2NiP2O7,0.02422641333332632
mp-778010,LaTa2NO5,0.03597152611110843
mp-1093606,ScCu2Hg,1.7928985425
mp-752672,NaDyO2,0.0
mp-771494,Na3FeAsCO7,0.0
mp-945077,YTe3,0.0
mp-756176,Li2CrS3,0.05110680136904744
mvc-15785,YSnF5,0.08356433785715023
mp-780305,Li6Fe5O12,0.030223852336957787
mvc-10029,ZnSn2P2O9,0.12861242791666516
mp-866605,Ce3SiAgS7,0.0
mp-1099685,BaSr7(FeO3)8,0.00335981274999142
mvc-5417,TiZnP2O7,0.2253830608143925
mp-569298,Ca(CoAs)2,0.0
mp-556393,RbBe4(BO3)3,0.0
mp-1098825,Mg30FeCO32,0.13318230373046802
mp-862329,ScI2,0.11462361173333413
mp-764721,LiVOF3,0.02635620420635832
mp-540065,LiMo(PO4)2,0.05354255520831064
mp-861183,LiNi(PO3)3,0.0570118085714153
mp-23684,NaHCO2,0.08646011750000326
mvc-15427,WN2,0.17095277333333314
mvc-3501,AlCuO3,0.15785877466666687
mp-973974,K3Mo,1.167348585
mp-19739,Sc(FeGe)6,0.0
mp-766757,Ti2Fe4O9,0.03063641225639735
mvc-11942,CaTi2Fe2(PO4)6,0.03292361639285346
mp-22939,BiClO,0.0
mp-28737,K2(CuTe)5,0.0
mp-4008,ZnGeAs2,0.0
mp-1094073,S,0.5098457984374996
mp-31609,Li3Co3(PO4)4,0.013091849983956294
mp-606304,MgH16C4S4N2(O4F3)4,0.5965992699772666
mp-566493,NiP2H24(C2O7)2,0.10146381566203644
mp-7487,BaO,0.13241588500000034
mp-6879,Ba2CaCu2HgO6,0.012512355312496837
mp-24202,Th4H15,0.0
mp-4079,Sc3AlC,0.0
mp-781180,Mn6O5F7,0.07204719423612271
mp-31356,Sr3MoN4,0.003816666145833203
mp-1094351,MgTi2,0.06190792555555812
mp-1077383,CsAuS,0.0
mp-583714,Pr5O9,0.12162026415178673
mp-32437,LiV3(P3O10)2,0.03488073100002076
mp-865715,Li2PrTl,0.0
mp-585949,CaCu,0.0
mp-642811,KCu2H2(SeO5)2,0.14657466154412013
mp-18842,TlV4O10,0.02997488766666656
mp-556013,Na2Be(SiO3)2,0.0
mp-685283,Ag13Bi15I64,0.1066894022826088
mp-557543,K3LuSi2O7,0.0
mp-1020620,Rb5Li6(BO2)11,0.0
mp-21236,BaPPt,0.0
mp-30197,K3ErCl6,0.0
mp-1097564,Zr2CoRe,3.9383161042999957
mp-849387,Cu6OF11,0.013068206788193315
mp-19366,Lu(FeO2)2,0.037323728839298916
mp-1033650,CsRbMg6O7,0.6822865462499976
mp-604453,CeBiPd,0.0
mp-1022493,Mg6ZrB,0.4957690406249999
mp-23712,MgH2,0.08168154583333287
mp-1065933,YI,0.09451996666666672
mp-19170,PrNiO3,0.003996295500001246
mp-762299,LiCoCO4,0.09361711200001288
mp-28147,Er4Ni13C4,0.0
mp-696886,KH(CN2)3,0.6667722212412102
mp-29198,Na5AuSe12,0.0
mp-5677,Tb(MnSi)2,0.0
mvc-15992,MnAlO3,0.27153514931250555
mp-10087,CeScSi,0.06648102939394107
mp-28488,CuPtF6,0.0
mp-1039217,MgCd2,0.03978889333333302
mp-1034599,NaMg14WO16,0.07809606859374972
mp-773582,LiTe(H3N)4,0.0
mp-778881,Li5Mn2(PO4)3,0.052289810113644634
mp-753676,Ta2TiO6,0.0220049817777781
mp-650767,Rb2NaCrF6,0.0
mp-978267,Mg2ZnRh,0.016272596361111002
mp-1035540,Mg14FeBiO16,0.17468642795572986
mp-1022605,Mg6FeNi,0.1815193737499996
mp-768054,Li4V3CrO8,0.013220871874999318
mp-554303,La3U(ClO2)3,0.0
mp-21015,HoCuSb2,0.0
mvc-4085,Y2Cu3(SiO4)3,0.31346848662506144
mp-1038783,CaZn,0.6281332837499976
mp-16699,Li6Gd(BO3)3,0.002803837763152295
mp-1031034,LiMg6CrO8,0.03639232187499975
mp-1097046,La2Sc2O5,0.0924729175462975
mp-5056,Mn2SiS4,0.06094873607142759
mp-754308,Li3Cu3(PO4)2,0.08697526328125171
mp-558808,LiAl(SiO3)2,0.02445153572222747
mp-1084847,TbTe3,0.0
mvc-4926,MgCu(SiO3)2,0.09709434987500833
mp-541402,K(Mo2O3)2,0.2776028899999972
mvc-2603,CaV5O7,0.0843006441346148
mp-754113,TmClO,0.03503345833333338
mp-715617,V6O13,0.04523988973682158
mp-559807,Sb2BrF17,0.0
mp-772529,Y2W2O9,0.06837175846154686
mp-510073,RbLi(H2N)2,0.0
mp-755449,Cd(AgO2)2,0.0598290063690472
mp-698440,SiBHC3NCl2,0.9095709122453705
mp-746662,NiH44C12(N5O8)2,0.24753256418674585
mp-557391,Na2Ca2(CO3)3,0.0
mp-1075956,K2Mo2O5,0.22439564138888546
mp-1097415,Zn2NiPt,2.1493852625
mp-780263,Ba2GeO4,0.0
mp-673119,LiSn2P3O10,0.05218493005207758
mp-646102,Al3Bi5Cl12,0.0016341172499991785
mp-6909,BaPrO3,0.10792628375000037
mp-23349,Bi(BO2)3,0.0015381844999922125
mp-1067974,ZrCl,0.057770325000002565
mp-755060,Cs2O,0.07074254666666535
mp-555435,S4IN3Cl2,0.08503439412499958
mp-557411,KRb2VF6,0.0
mp-642662,SrH2Cl2O,0.2929994916666665
mp-1037656,LiYMg30O32,0.02090514726562276
mp-30010,AsKrF7,0.0
mp-578612,NaFeO2,0.0
mp-764692,LiVCuO4,0.07595611714285955
mp-720430,CaB3H7O9,0.005224167125000179
mp-759667,Li2Sn(BO3)2,0.058055368181817
mp-762225,BaCO3,0.013234996999994308
mp-779244,Mn6OF11,0.02843769284722697
mp-888,CaAs,0.0
mp-611316,AsN(OF3)2,0.0
mp-28798,Nb4Te12I,0.21814306147058726
mp-766851,Li4V(PO4)2,0.0520384933434368
mp-1080817,NbFeB,0.0
mp-975799,LiZn3,0.0
mp-1612,AgO,0.00037306374999968034
mp-864770,Ta2MoOs,0.0
mp-637378,Gd3InN,0.0
mp-735476,MoH2N2Cl5O,0.9462539131278732
mp-767470,LiNi2(PO4)2,0.08261096331729245
mp-861251,Li9Mn5(SiO8)2,0.06958305687499332
mp-865304,Tm2CoRu,0.0
mp-764865,Li8FeCo9O20,0.041184869473689815
mp-862691,Al2FeCo,0.0
mp-1095855,LiZnPt2,2.24349955125
mvc-4372,Ca2TaCoO6,0.0397980547321275
mp-743594,NiH12SO10,0.0013762037499995827
mp-617426,InFeBr3,0.36303443849999706
mp-1098576,Mg30NbCO32,0.17980067504817754
mp-974463,LaAg2Sn,0.0
mp-768056,LiMn10O20,0.034902495927429555
mp-768009,Li5Cr17(SiO16)2,0.06754055214285515
mp-1037665,YMg30SiO32,0.12232196475585955
mp-764244,Li9V3P8O29,0.02780545724490047
mp-1071623,CuSnAu,0.025410379999999844
mp-17552,CaSiO3,0.020314518333332643
mp-561390,LiYb(PO3)4,0.005006052199071576
mp-1021716,SrMg6V,0.30082766513392833
mp-774112,Li3Fe4WO8,0.06279889322917054
mp-16275,CeScGe,0.03436172688889093
mp-1036721,Mg30TiSnO32,0.10575187675781272
mp-1028731,TeW2Se3,0.029561388125000764
mp-513,ErGe3,0.007031872083334001
mp-19570,Li3Fe2(PO4)3,0.0010171039999997686
mp-1097181,ZrScZn2,2.7857749625
mp-1099844,Sr2Ca2Co3CuO12,0.09565831738393804
mp-505512,Ce2Sc3Si4,0.0
mp-571500,Ho(FeB)2,0.0
mvc-15029,Y(CuO2)3,0.6514886492499983
mvc-913,V3Zn(P2O7)2,0.08048251284090835
mp-25679,K2CoH8(CO5)2,0.0
mp-20446,SnPt3C,0.6427811464999982
mp-322,TlS,0.05039647015625537
mp-6097,Li3Al(BO3)2,0.005949144999999767
mp-561065,MgTi2(PO5)2,0.0
mp-770004,Ni5(TeO6)2,0.07855650554824756
mp-862712,Sc2CoIr,0.0
mvc-15497,Mg2SbMoO6,0.08383958300000849
mp-1009537,OsC,1.4647747537499995
mp-1097188,La2AgAu,2.16837161625
mp-759981,NaCu(PO3)3,0.01857854937500658
mp-22722,NbSiPd,0.0
mp-505373,AsSeI,0.0
mp-934092,VAsRh,0.003670999791666851
mp-10167,Na3SbS4,0.0
mp-769589,LiV3CrO8,0.08937818439101264
mp-16329,ErSbPt,0.0
mp-697133,Cs2CaH4,0.0
mp-21618,NdAl3(PbO4)2,0.0
mp-16528,Al6Re,0.0
mp-1001605,PrBi,0.17389539499999973
mp-762713,LiMn(PO3)3,0.07318705428571004
mp-27218,Ge(BrF5)2,0.0
mp-2511,PbF2,0.02276641166666771
mp-31614,Li3Co3(PO4)4,0.01395761383010985
mp-2315,NaB15,0.0
mp-686527,K4Mg2H16S4O23,0.0919781329846936
mp-1022050,Mg6GaCu,0.0926949050000001
mp-1025353,TlAsPt5,0.010288508928571359
mp-866661,K3Dy(AsS4)2,0.0
mp-971633,NaFeO2,0.3873836749999997
mp-759754,Ti11O14,0.04594710880000186
mp-705363,LiMnP2O7,0.030284135454546224
mp-1001916,HfN,0.2698690399999997
mp-680135,Cu3Bi7(PbS5)3,0.005717600267855616
mp-868889,La18Ni12O41,0.08059765549294529
mp-770954,Li4Nb2V3Cr3O16,0.0033777962276353435
mp-556448,ZnS,0.0003167288888890063
mp-774385,Fe5(OF4)2,0.06357931000000416
mp-1025305,Nb2CuS4,0.4499558418367355
mp-20241,Mg4P6Rh7,0.0
mp-672176,K3Sc(MoO4)3,0.0026463296052634533
mp-26173,LiBi3(PO5)2,0.012159805138889368
mp-740740,Na2ZnP(H5O4)3,0.019203633951612176
mp-625385,HNO,0.4208963640319992
mvc-8446,ZnCu(Si2O5)2,0.09412552901041504
mp-22861,NiBi,0.3069239074999999
mp-1093999,Zn2Ag,0.0
mp-1095273,BaGdCuTe3,0.0
mp-765443,Li3Ni4O4F3,0.02306301857143911
mvc-4854,MgCrO2,0.11731637249999773
mp-6908,YMgZn,0.0
mp-1019561,Ca2GeO4,0.1886120242857139
mp-570568,W2NCl8,0.0
mp-770193,Li2CrFeO4,0.00245614562500851
mp-558464,Yb(IO3)3,0.0
mp-567362,BiTe,0.1316239941666666
mp-23041,SbSI,0.0
mp-640416,Rb,0.032313005000000006
mp-770029,LiMn2Fe3O8,0.037949757455352895
mp-775960,Li4V5Sb3O16,0.08962336806547723
mp-743573,KBaFe2(PO4)3,0.0
mp-1021462,BaMg6Ti,0.3081714552827375
mp-763163,Li4Fe3Co2Cu3O16,0.07908231511160846
mp-675563,LaZr9O20,0.0975572155625013
mp-770000,Li2CrCoO4,0.1149985612500002
mp-541840,DyC2,0.02717569458333191
mp-1038831,Mg3Bi,0.10273893000000013
mp-504985,Ba(GaPt)2,0.0
mp-20890,Eu(FeAs)2,0.0
mp-754459,BCl(OF2)2,0.008230691249999644
mp-770046,Li4Cr3NiO8,0.00929272062500086
mp-778415,Li32Mn3Cr13O48,0.017586602395835094
mp-569635,Ba6Zn(InCl10)2,0.0
mp-638141,LiSn5Rh3,0.0
mp-773826,Na8Bi5O14,0.06453532574074483
mp-557650,Sr3P6(N4O3)2,0.0
mp-505274,Na2SO4,0.0064001867857150785
mp-625994,H4N2O3,0.6416303385213258
mp-667326,K5InO4,0.0
mp-27230,As2SO6,0.0
mp-763493,Li2VP3O10,0.06579602567708953
mp-767990,LiV(CO3)2,0.03850809650001175
mp-761349,CdCoO3,0.08563508050000035
mp-1096302,Sr2GaHg,1.472233126874999
mp-862300,Sc2GaOs,0.0
mp-541281,BaNdGaO4,0.013938343845239842
mp-765316,Li3Ni2(CO3)4,0.08879105479166682
mp-554096,SnHg2(SBr)2,0.046839389285714184
mp-31361,EuIBr,0.005732176416667123
mp-4057,CsBF4,0.0
mp-1009460,Hf,0.04168441500000064
mp-631325,ScHgW2,1.1834051374999994
mp-983584,Al3Tl,0.3052820062499997
mp-631531,NbBW,2.142340818333336
mp-754329,CdSnO3,0.0
mp-1027722,Te2Mo3W(Se2S)2,0.042609898333334506
mp-979424,YErIn2,0.0
mp-1078411,Sr(SnAu)2,0.0
mp-689975,LiMn(PO3)4,0.06001753041666812
mp-8086,Na2Zn2O3,0.0035722985714290445
mp-675987,Ag7(SI)2,0.17164306545454666
mp-676519,Sr6Nb7O21,0.012702168088145172
mp-1096281,LiAlHg2,1.0393284150000004
mp-581330,CsCa2Nb3O10,0.0
mp-1033706,HfMg14GaO16,0.2151694532031252
mp-569594,Fe7Mo6,0.0
mp-1080085,PrInCu,0.0
mp-1078283,Ce2Fe2Se2O3,0.06535482709876561
mp-505141,Cs2SnS14,0.0
mp-22776,K2FeCo(CN)6,0.15151827425781228
mp-14249,Th(PS3)2,0.0
mp-982974,LiBeAu2,0.0
mp-1097997,KEu(GeO3)2,0.0
mp-8388,K2CuF4,0.0
mp-626062,U3(HO5)2,0.040565979500001965
mp-1078291,LaCo2AsN,0.0
mp-216,Sc2O3,0.0
mp-754835,Na6CuO4,0.10348350935605932
mp-763783,Li4MnF7,0.05630542999999655
mp-5450,K2ZrF6,0.0
mp-752561,SbO2F,0.008792512374999006
mp-680383,V17Ge31,0.0
mp-1007657,HfRu3,0.1948979349999984
mp-567968,Mn11Si19,0.0061433018611083395
mvc-788,W3O8,0.09039120643356567
mp-531533,YbZr3F15,0.0
mp-1079156,AgClO2,0.37132871875000095
mp-477,SmGa2,0.0
mp-574266,MgGa,0.0
mp-759958,AsH3C(SF2)3,0.10882720281037628
mp-861608,PrNiB4,0.0
mp-865211,TmInRh2,0.0
mp-574275,Li17Pb4,0.0
mp-778711,Fe4OF7,0.07337873333333
mp-1097153,LiAl2Co,2.3234058945833334
mp-1093576,Y2CdIn,2.4169913125000004
mp-776220,Hf2N2O,0.07684313383332864
mp-1079136,U2InPt2,0.0
mp-862260,ScZn3,0.0
mvc-12100,CoP2O7,0.12315239318751735
mp-568508,CsRb(MnCl3)2,0.00011739908333296968
mvc-1261,YSb3Se2ClO8,0.3599078624600702
mp-780576,Li2Sn(SO4)2,0.04770689653846194
mp-777665,Li2FeF4,0.0724276253571432
mp-651839,Hg8Br3O4,0.11172562949999998
mp-1068797,Nd(GeAu)2,0.010183348500000022
mp-505734,Cs2SiO3,0.0
mp-5777,BaTiO3,0.0005173659999897495
mvc-11417,Ca(CrS2)4,0.0014817528845929573
mp-1079569,Te(NO3)2,0.5083476258796242
mp-570394,PrNiSb3,0.0
mp-592,TiRu,0.0
mp-765180,LiVCr(P2O7)2,0.010428045714260035
mp-862950,PmPd2Pb,0.0
mp-557835,TlF,0.004204142500001229
mp-25760,PrFeGe2O7,0.0
mp-699552,KMoCl4O,0.0005370892261948867
mp-28653,NdTa3O9,0.0
mp-1096184,Rb2HgTe,0.7026599097101449
mp-1027173,TeMoWSeS2,0.0721067616666673
mp-1021274,LiMg6Cd,0.01587271312500005
mp-1068795,NiNF3,1.398783507353334
mp-569410,PCl5,0.005707500138889099
mp-777100,VOF3,0.062141686999999564
mp-764063,Li2CoO2F,0.007054417500007126
mvc-9645,BiO2,0.07086709333333019
mp-560977,KTiPS5,0.0
mp-1027471,TeMo2SeS2,0.05295390083333197
mp-542425,MnP4H16(NO8)2,0.0
mp-1007918,DyAu,0.0
mp-743581,VH4NO3,0.06799010593481469
mp-975921,HfRu3,0.20370222124999948
mp-780510,LiMn3(BO3)3,0.09600864704425582
mp-557747,K2SrP2O7,0.0
mp-763280,Li2CoCO4,0.0855802396874985
mp-31139,TbNi,0.00025247541666662004
mp-23053,PbICl,0.04622600916666686
mp-1087513,Tb2MnGa6,0.0
mp-654299,Fe3C9(SO5)2,0.5933140410763906
mp-10792,DyBO3,0.028200228000001108
mp-776010,Cr2Fe3Cu(PO4)6,0.061075692414521036
mp-20030,U2InCo2,0.09070454499999947
mvc-9130,BiMoO5,0.18864536008928656
mp-772084,Li5Cu6(P2O7)4,0.02325770005318617
mvc-9027,LaFeBiO6,0.15373669513888902
mp-9922,HfS3,0.0
mp-571293,Rb2BaNb2Se11,0.0
mp-764227,Ca3MnO4,0.02134941250000022
mp-29546,Sr13(MgSi10)2,0.0