mpid,formula,e_hull
mp-779306,Li3Fe(BO3)2,0.07083292333332736
mp-696678,PH2NO2,1.6332980702083348
mp-865239,UF3,0.1289853858333334
mp-1027278,Te3MoWS,0.10469535395833153
mp-567467,CdH12C4Br3N,0.08896534698412761
mp-542482,CsEr2Cu3Se5,0.0020808110606065355
mp-857361,LiMnPO4,0.06323512535714215
mp-29069,Na(CuS)4,0.0
mp-1080198,Pb3N2,0.3380309215479995
mp-704306,K2U2MoO10,0.004169686708333842
mp-849504,Ta2CrNO5,0.06183914666666901
mp-1035698,Mg14VFeO16,0.025188208359375963
mp-1080221,KMn16O32,0.0009147868367360699
mp-1079882,Ba3SrO4,0.037378834999999284
mp-754550,Tb3TaO7,0.01372883284090598
mp-637680,K2Mo4O13,0.003788827105283943
mp-961649,ZrFeTe,0.06571410333333816
mp-6318,KLiSO4,8.601142857145305e-05
mp-865431,YbZnAu2,0.0035754171093751452
mp-651026,Os2C6SeO6,0.1582099772499994
mp-559366,PBrNF,0.014782399791667622
mp-13042,NaSr3TaO6,0.0
mp-1074855,Mg7Si4,0.22409299267676808
mp-764109,Mn12O7F17,0.07212856274306034
mp-1240,HoS,0.0
mp-1079727,LuSnPt,0.0
mp-3336,LaGaO3,0.037582097071428684
mp-690672,K3NaFeCl6,0.4683498206060608
mp-1036927,Mg30CdCoO32,0.014195868046875225
mp-571666,CsLi3Cl4,0.012371704375000014
mp-1080533,U(SiAu)2,0.08230350899999994
mp-553975,K3Na2InO4,0.0
mp-607841,Tl(CO)2,0.27627342150000445
mp-608366,CuN6,0.32362678903142594
mp-11282,Be2W,0.0
mvc-10067,MgTi4O9,0.15949757892857086
mp-696179,KNaH6PtC4N4O3,0.10563432756249737
mp-757089,LiIO4,0.0549890385416667
mp-776745,Li4Ti3V2Cr4O18,0.09105811833875777
mp-867305,Pu,0.22726101562500034
mp-5735,BaTbO3,0.08647472199999927
mp-865484,V2CrRe,0.0
mp-20245,CeFeSi,0.0
mp-569569,Sm(AlCl4)2,0.11152106060606036
mvc-7944,Mg2V3O8,0.0394777273077036
mp-1079979,UFeSe3,0.10389876360000104
mp-18481,K6MnSe4,0.0
mp-1093550,CaSbPd2,1.9086480954285716
mp-862684,LiHf2Os,0.0
mp-579836,Mn3B7BrO13,0.0
mp-18879,V2ZnO4,0.0
mp-36711,Na(Sm2Se3)4,0.02088231440476296
mp-1087523,TmAlNi,0.0
mp-19178,CoAgO2,0.0
mp-165,Si,0.010745889999999923
mp-770942,Li4Ti3V2(Fe2O9)2,0.08608887744621896
mp-755523,TaS2,0.02268603000000624
mp-21489,Rb2PbO3,0.002124827916667016
mp-3635,LiBO2,0.0
mp-1038036,RbMg30MnO32,0.08226683377604349
mp-770385,Li2Fe3BiO8,0.005298843214284865
mp-762560,Li4Mn2V5O12,0.07532596358693766
mp-769603,LiVSO4F3,0.04749910188637152
mp-17017,Al12Co4Cu,0.0
mp-1094340,MgTi5,0.0999687952777748
mp-34412,Sr(La2Se3)4,0.007613628095234581
mp-776810,Li2FeF5,0.0196305171527813
mp-1096874,Co(AsO2)2,0.0
mp-758270,Li3Ti(PO4)2,0.07927984192006665
mp-555173,UCO5,0.005631210357142535
mp-755382,BiSbO3,0.0863335517272743
mp-540834,Ni2Hg2OF6,0.0
mp-13207,CeZnPO,0.0
mp-707294,ZnP2H15C5NO9,0.0974584589015164
mp-1095529,LuH2ClO2,0.0005318541666712306
mp-775715,Li4V3Co3(SnO8)2,0.06956354712798074
mp-770251,Ti4VO8,0.12950591076922358
mp-10580,La(AlGe)2,0.0
mp-1073777,MgSi,0.12092662555555522
mp-865561,Y2AgRu,0.0
mp-744858,Ni5SbH17C15NO9,0.4900446523177164
mp-560185,TiFe(BiO3)2,0.013016709159090922
mp-510547,Cu2H3ClO3,0.0436129981944422
mp-31191,Sc3Co2Ge3,0.011588893750000828
mp-558697,Rb3U2Ge2O11,0.0
mp-1095958,CaSnHg2,1.2446815025000002
mp-757825,Mg11Ti25O60,0.0
mp-771542,Li3FeAsCO7,0.04134180711539681
mp-1073562,MgSi2,0.2976510291666661
mp-694541,FePO4,0.031848091250000536
mp-28914,Cd4P2Br3,0.0
mp-10661,Tm,0.1405828299999996
mp-25975,LiCu(PO3)2,0.04336013504165859
mp-569702,KPSe3,0.0
mp-1093699,LiMgHg2,0.8465930349999998
mvc-10238,HoMg(WO3)2,0.17721079920833205
mp-31572,Co(PO3)4,0.059597121139714375
mp-1094916,Ce2Mg,0.08949135888888904
mp-863875,LiCoPO4,0.09672687505952382
mp-562920,CsAl(SiO3)2,0.0
mvc-6930,WO2,0.0
mp-600348,LiCoH24C8(N2O3)4,0.4530730202662046
mp-773887,TiBi2O5,0.016817439062499773
mp-775686,Li4Fe3Ni3(SnO8)2,0.028237162421876683
mp-554193,NaGa(TeO3)2,0.004633556499999969
mp-636461,Ga2Ge4Pb3O14,0.0223364614356818
mp-745015,K3Fe3P4H2O17,0.0
mp-698360,HgH2C6(NCl2)2,1.2318253827499994
mvc-13322,Sr2Y2Mn2O7,0.11181000038461343
mp-652683,Ba2Fe6O11,0.0018031438158025992
mp-1031691,Mg6VSnO8,0.250585961562499
mp-1080122,Bi2O3,0.14481327949999925
mp-560449,K3Ni2F7,0.0
mp-557278,Na2InNiF7,0.0
mp-581963,K4Hf3Te17,0.0
mp-1096655,ZrZn2Au,2.1482941393402792
mp-566408,BaYFe4O7,0.15827545777472274
mp-757282,Li2Sn5(PO4)4,0.06619456706791292
mp-715434,NiO,0.0
mp-20994,TaO2,0.07079762699999925
mp-761768,Mg10FeO11,7.329113636256325e-05
mp-676694,LiNbO3,0.008125394666665288
mp-1080848,KVN2,0.0
mp-1018177,EuC2,0.0
mp-31069,P2Pb8O13,0.004363275869568639
mp-4725,Nd(GePd)2,0.0
mp-10666,Mn3AgN,0.10101192549999016
mp-19271,BaCrO3,0.07599542875000154
mp-687200,LiFe(PO3)5,0.04915286758522441
mp-770200,Li2Cr3SnO8,0.028249591626983594
mp-768908,Ho2TeO2,0.0
mp-561533,SbOF,0.0
mp-20205,Yb2Cu2O5,0.0
mp-29402,KGaI4,0.0
mp-24424,BaHBr,0.0
mvc-9344,CaPr(SnO3)2,0.13053397962500135
mp-763982,Li3TiV2O6,0.03006836479167685
mp-675271,Na2CO5,0.34464519218750045
mp-757574,Ba8In8O19,0.016027524428571915
mp-1029231,Te4MoW3(SeS)2,0.06715303479166845
mp-763072,Fe4O5F3,0.07903787848958466
mp-1076338,La3SmV3CrO12,0.1088276433437514
mp-25783,NiH4SeO5,0.00622380037878667
mp-5919,SmTiGe,0.0
mp-28134,Ba2As2S5,0.0
mp-638731,LaCO3F,0.0
mp-1095979,Li2CdBi,1.1442882670833336
mp-640353,Cs(BI)6,0.0
mp-773931,NaLi5Mn2P2(CO7)2,0.047975992820513014
mp-763065,FeOF,0.04082102611110905
mp-5135,Dy(CoB)2,0.0
mp-1026762,LaMg14Ga,0.06669708270833352
mvc-13983,AlVF5,0.02253239357143233
mp-20724,Mg2Pb,0.0
mvc-14177,MgTiF4,0.2124098621296282
mp-1033806,Mg14NbCO16,0.3491725779088526
mp-505698,SmH18(IO3)3,0.0
mp-754338,Ag2O,0.03188318833333437
mp-13399,Lu(NiGe)2,0.0
mp-19784,In2Si2O7,0.13139892681818033
mp-776682,Mn6O5F7,0.04116224201389952
mp-867904,AlGeRu2,0.0022213146874987552
mp-1040362,KRbMg30O31,0.13680509438492106
mvc-10465,MgFe2(CuO4)2,0.17240076836538698
mp-775964,Li5Fe3Sb2(PO4)6,0.09388886094998217
mp-1785,PrSb,0.0
mp-777065,NaMnPCO7,0.008244255000001921
mp-1034985,RbMg14CoO16,0.1744294818750003
mp-605684,Mg3H13C9NO13,0.12950258256410052
mp-676229,Rb5NO5,0.2363663220202019
mp-19200,Tb2Mo2O7,0.00555603920454395
mvc-6737,Mg3As4W3O16,0.239393478525642
mp-697146,Zn(HO)2,0.014974139500000485
mp-761483,Li3Fe(PO4)2,0.0860064013392865
mp-571653,C3N4,0.4882024725685721
mp-862789,Er2ZnIr,0.0
mp-1222,CrSi2,0.01140727666666752
mp-1019358,ThAsS,0.0
mvc-6184,Sn3(AsO4)4,0.1835631552173922
mp-557071,KBi6ClO9,0.007868550955882903
mp-17168,Er3Ni7B2,0.0
mp-754352,Na3CuO2,0.02221232416666563
mp-699535,MoSCl7O,0.12405811366666696
mp-38971,Eu(YS2)2,0.030406811904761355
mp-30826,Pd13Pb9,0.011958857136364465
mp-759211,La2H22S6N6O23,0.08369088648598133
mp-1096681,CdSbRh2,2.2060638718750005
mp-683970,SiO2,0.1299535110416663
mp-30385,Ho2Au,0.0
mp-769780,Gd6WO12,0.0
mp-985551,CeY3,0.09375835312500057
mp-1021410,Mg6SnW,0.30904995999999985
mp-866201,Ti3Bi,0.009962815833335805
mp-756436,FeO,0.07604663750000107
mp-34425,Zn(FeO2)2,0.03988540428571419
mp-7631,SiC,0.0
mp-8952,HoAsPd,0.0
mp-761729,Li2VCo3O8,0.06674477939285506
mp-752435,DyTmO3,0.0881896761249994
mp-723064,Ti3(BiO3)4,0.0065152021052634615
mp-861988,PrAgHg2,0.0
mp-1019587,CaAl2SiO6,0.05062058145833426
mp-768152,NaZrPCO7,0.03862308227272848
mp-1028492,TeW2S3,0.06995146562500132
mp-631337,NaTaNi,1.5886608500000008
mp-557686,ZrVF6,0.0
mp-669525,Sb3Pd8,0.1551141393181723
mp-12527,Ti2Te2P,0.0
mp-572767,CsAuF4,0.0
mp-761386,LiCrPO4,0.06306958845238242
mp-556421,NdVO3,0.0
mp-556742,GaS,0.0012014374999997912
mp-504891,La3MnGaS7,0.0
mp-1098156,LaMg3,0.09832142875000073
mp-1095985,MgTiAu2,2.0100553274999995
mp-989624,TiPN3,0.015070069841332412
mp-762621,LiFe(PO3)3,0.0452539303571502
mp-1080522,YSn3,0.07865559750000006
mp-744924,Na2TiCr(PO4)3,0.0
mp-978640,Sm(Mo3S4)2,0.002316502749998506
mp-1073908,Mg6Si5,0.2163863051515156
mp-764424,Li3V2(O2F)2,0.06807979329547642
mp-540427,V(PO3)4,0.01819354323529332
mp-862318,LiAl2Ni,0.0
mp-997530,Li2FeCu(PO4)2,0.03420117279764323
mp-631313,SrHf2Mo,0.9199844649999998
mp-1017291,NaMg6Cd,0.05856934687499993
mp-567196,Cs3Sb2Cl9,0.0010959457142849516
mp-865529,Ti2NiIr,0.0
mp-760690,Li8TeO6,0.0858528593333352
mp-772321,Cr2(WO4)3,0.07454674602941758
mp-862931,ErSnRh2,0.0
mp-6958,TlSb,0.18325891130952374
mp-722262,CaB3H3O7,0.0
mp-18055,La2Ge5Rh3,0.0
mp-6775,Na3Sr(BO2)5,0.0
mp-541914,MnHgC4(SN)4,0.15326435670520233
mp-757395,Li11(RuO3)8,0.04972381464147535
mp-1080031,Co(ClO3)2,0.7409072023611172
mp-865534,YBr2,0.1567794441666681
mp-1062935,LaHg2,0.01592976333333329
mp-24925,NaCrP2O7,0.0
mp-27857,PdBr2,0.0
mvc-5804,CaAsWO5,0.12151558833333187
mp-641703,Li7P3S11,0.019855159246032983
mp-762588,Li4Mn2Ni5O12,0.04396610622721209
mp-973099,La2PdRu,0.014583812500000626
mp-1098920,Mg30CrCoO32,0.02796839378906313
mp-1097380,LiCa2Ag,1.3146340839583337
mvc-8414,MgCrNiP2O9,0.05087534990077902
mp-976867,Pm3I,0.3554769962500002
mp-27945,BiO,0.4857810420833335
mp-9361,RbLaS2,0.0
mp-865246,EuBi3,0.0
mp-16487,Ce(MnAl2)4,0.0
mp-510228,V2Te2O9,0.0012618787820759536
mp-15039,Ba2Yb(CuO2)4,0.008466097714292077
mp-3553,KTeAu,0.0
mp-720655,Na4Al2Si6ClO24,0.7948634199662301
mp-7482,RbHgF3,0.0
mp-772898,AlGaO3,0.02800687049999961
mp-25089,Sr2NiWO6,0.0
mp-1016296,SrMg6Mo,0.2626505188839285
mp-1061921,Tb,0.0
mp-767185,Li7Mn(O2F)2,0.06341359428572435
mp-695895,K4Ba2N7O16,0.3879765584746195
mp-705355,Li2Mn(PO3)5,0.03128627405797069
mp-18505,CsHo3Te5,0.0
mp-571452,KPSe3,0.0019484812500003559
mvc-15475,AlAgO3,1.6331209499583608
mvc-7266,Mg(CuO2)2,0.190087147499999
mvc-16093,Al2BiSe4,0.0
mp-764113,V3OF11,0.06643998449999433
mp-541330,Sr2SmGaCu2O7,0.011280551105750549
mp-505366,AuBr,0.0
mp-982872,Hg,0.02046174000000001
mp-27249,CuCO3,0.158050096500002
mp-763863,Li4Mn3Nb3(SnO8)2,0.09297523169643007
mp-667308,Cs3(FeS2)2,0.0
mp-20479,SrIn4Ni,0.0
mvc-10084,Ti4ZnO9,0.16561700232142584
mp-27455,YCl3,0.0
mp-21003,Y2ReC2,0.0
mp-8704,K3SbSe4,0.0
mp-778,Fe2P,0.0
mp-753691,Y2Bi2O7,0.07782019272726881
mp-761479,CoH8(IO5)2,0.04488414369047612
mp-540248,LiNiPO4,0.03120220035714638
mp-1073700,MgSi,0.1964380572222217
mvc-8667,ZnCr(Si2O5)2,0.0725975703125048
mp-1035261,Mg14CdCuO16,0.04245254562500112
mp-5391,Mg2SiO4,0.05021816607142782
mp-22475,EuSbAu,0.0
mp-1077398,TbSi2,0.0
mp-1096566,YSbAu2,1.8760500275000007
mp-14858,Rb4Tc6S13,0.0
mp-569610,CoI2,0.025231263333334475
mp-1035557,RbMg14FeO16,0.1836534446093756
mp-762866,Li3MnCo3O8,0.023816697
mp-582680,ZnS,0.0004227937499994283
mp-600072,SiO2,0.0130576327083336
mp-981214,SrMg5,0.02317070624999995
mp-554284,Na5Fe3F14,0.028545749545454413
mp-9705,Ba4Na(BN2)3,0.0
mp-650963,Tl3(MoO3)10,0.024691284460134355
mp-557002,Pr9O16,0.04620729177500671
mp-676909,NaEu2Cl6,0.0
mp-12410,Ba2TbIrO6,0.0
mp-637209,AsN9,0.3037919916080005
mp-1038340,Mg30AlCoO32,0.031699483476562484
mp-5351,Tb(GePd)2,0.0
mp-762265,Li3V5O10,0.05878545208331865
mp-8357,UTe3,0.0
mp-626337,Sr(H8O5)2,0.0436698079629636
mp-704189,CoPO4,0.007587912222222216
mp-977230,Li3Tc,0.6226181725000002
mvc-14264,Fe9O13,0.1890886654545465
mp-776092,Li3V2F9,0.07888483404761093
mp-1062824,YbHg2,0.019241825833333337
mp-764809,Li3MnFeCo(PO4)3,0.029849696726224725
mp-530194,Ca4Nb2O9,0.022963612333333216
mvc-14629,Mg2MnN2,0.08408912183333063
mp-973136,LiSmO3,0.2925763987500005
mp-557865,NO2,0.024654318333331204
mvc-11649,Ca(CoO2)2,0.013569266071416841
mp-755902,Lu(HO)3,0.05365331642857018
mp-1077563,CoTeMo,0.5953127586111124
mp-772552,Li6CrO4,0.0932288015151519
mp-3283,RbNbO3,0.0
mp-1073045,Mg2Si3,0.1837319161111104
mvc-3750,MgMoF5,0.06536541499999604
mp-998908,TiN,0.3020626000000011
mp-764034,Na(FeO2)2,0.1372408174107136
mp-18778,Zr(WO4)2,0.07429885863636443
mp-1080821,BaF3,0.0
mp-975738,Pr(BOs)2,0.0
mp-1033389,HfMg6NbO8,0.37672885390625055
mp-769842,LiLa4FeO8,0.08654034535716981
mp-691141,TiNiO3,0.019203615749926684
mvc-9240,PrMg(SbO3)2,0.2699066333500024
mp-14049,Ba3Al2(SiO4)3,0.27267269165624874
mp-704467,Rb2U2WO10,0.0
mp-677406,CuH12N2(Cl2O)2,0.024200820476193208
mp-3606,MnSiN2,0.1290549508333303
mp-769232,Dy2(SeO4)3,0.0
mp-1096476,LiLa2Cd,2.2680118366666666
mp-971763,ZnSb3,0.2828637403125001
mp-677055,ScCuSe2,0.0
mp-1100246,BaSr7Ti5Mn3O20,0.08786377268166667
mp-738707,SiPH18C6INCl,0.08245247642613496
mvc-1259,CaNiO2,0.2036456568749987
mp-758103,YH2(CO3)2,0.0
mp-763284,FeOF,0.08102951749999933
mp-998156,RbSnCl3,0.02373922599999867
mp-1022039,Mg6VNi,0.24986364249999984
mp-1025261,MgPPd5,0.0
mp-30797,Nb5Te4,0.0
mp-569571,Nb3Sb2Te5,0.34093924199999925
mp-774873,NbS2,0.039180870000000916
mp-771331,BaNa3PCO7,0.03072491538461186
mp-3486,KSnSb,0.0
mp-757084,Rb3SbO3,0.05512787035713984
mp-646967,Ca3Mg3(PO4)4,3.176743589783371e-05
mp-771428,Tb2WO6,7.399305555644276e-05
mp-974355,Mn2S3,0.04079179100000019
mp-622105,Ba2DyCu3O7,0.023709963076910867
mp-769522,Li13Mg(Ni6O13)2,0.0036059793749956283
mp-13225,DyMg2Cu9,0.0
mp-1096122,BeCrOs2,3.9120426618750006
mp-12990,Ti2AlC,0.0
mp-10769,BaSbAu,0.6061747900000003
mp-773978,Li4Co3TeO8,0.04731258890624978
mp-755139,Li5BiS4,0.03806078849999839
mp-21476,Fe2N,0.052904851666667696
mvc-2821,Ba2Ti3Tl2Zn2O10,0.4224626210526311
mp-557926,CdAs2(XeF5)4,0.0
mp-4515,Ag3SbS3,0.002280507499999196
mp-570348,SnH20C6(NCl3)2,0.0717030187857155
mp-1025537,TmTe3,0.3312268987499998
mp-27788,TaPCl10,0.0
mp-19713,Sc3In,0.0
mp-1076449,SrCa7Mn7FeO20,0.06409751847223877
mp-1097487,MnNb2Mo,4.137126301875003
mp-773736,Co3OF5,0.03612433652777725
mp-778756,LiVBO3,0.08477533763889156
mp-558082,Li5GaO2,0.28946923687500004
mp-865411,GdAl3,0.0
mp-570775,BaAu,0.0
mvc-16043,Sr4CaCo2(SO3)2,0.18431498008333413
mp-8097,SiP,0.38507050875000015
mp-30294,Sr2SnS4,0.0
mp-21537,Ce(In2Au)2,0.011685532142856836
mp-772524,LiTi2(PO4)3,0.026251398333332787
mp-1028200,CaMg14Fe,0.11515224843749985
mp-757505,LiNbPO5,0.0938366038819396
mp-21310,TbGeRu,0.0
mp-1013849,Li3Fe2(GeO4)3,0.12755535940624796
mp-15009,La3(GeRh)4,0.0
mp-580161,Na3InBi2,0.0
mp-7502,K2Sn2O3,0.00823579857142942
mp-557250,HgINO3,0.0
mp-767091,LiNbSn3(PO4)6,0.009142983857143072
mp-570469,Pr5Tl3,0.0
mp-1020638,Na8PO3,0.2911979329166665
mp-861881,LiGeAu2,0.0
mp-862432,Sc2AgIr,0.009876883749998731
mp-644852,BaCa(CO3)2,0.03238839800000104
mp-753414,Lu2Pt2O7,0.0
mp-867753,CuSbRh2,0.0
mp-15487,Ag6Ge2O7,0.005653096833349025
mp-554497,CuSb2(XeF5)4,0.0
mp-696983,KGaH4,0.0
mp-21851,MnSiIr,0.0
mp-1076606,KNaMo2O5,0.1934561258333352
mp-1093754,YScRu2,2.984033820625001
mp-10837,Na2MgInF7,0.0
mp-565583,Gd3BWO9,0.0
mp-30590,LaCu6,0.0
mp-556763,AsSe3(NF3)2,0.15229166908575476
mp-569402,VP,0.3912711075000006
mp-14587,ZnP4,0.06073058151190658
mp-696845,MgH12(ClO3)2,0.009890453809522805
mp-20426,Fe2As,0.06173962833333312
mp-30798,NbZn2,0.0
mp-675942,AgClO2,0.257275968750001
mp-1022070,Mg6CuMo,0.277783360625
mvc-27,Mg(TiS2)2,0.06488858957142972
mp-771103,Li5Fe5(SbO6)2,0.05398107861110901
mp-22211,V3Sn,0.04102940749999995
mp-1028224,YMg14Co,0.07979917078124954
mp-46,Ti,0.00726383833333255
mp-24891,BaLu2CoO5,0.00926308643519036
mp-765419,Li6V5O12,0.04848703668478205
mp-1076931,Eu(SiPt)2,0.0
mp-777447,LiFe2F7,0.09879539211113286
mp-7660,BaRhF6,0.0
mp-1015061,NaLi2Sn,0.3264478632692307
mp-559204,H3CS,0.04670160455357309
mp-774848,H10SeO8,0.0
mp-11605,KTb2CuS4,0.0
mp-505618,Ba2CuWO6,0.043561970250001636
mp-19813,Ba2GdCu3O7,0.018461332980783673
mp-1020647,Sr2LiBeB3O8,0.0
mp-770915,Ti3Mn3Cr2O16,0.098876406874993
mp-1094467,Mg3Zr,0.11121654499999956
mp-569320,Sm3Ge5,0.0
mp-691161,Mg(FeO2)2,0.24048709500000065
mp-1079816,ZrAsOs,0.13561557222222653
mp-866660,K3P2AuSe8,0.0
mp-32407,TaVO5,0.0
mp-1074632,Mg2Si,0.15259605033333526
mp-12612,Ba3Ag2,1.1019333332917824e-05
mp-673636,Sm3S4,0.4137910178571413
mp-765114,Li2Fe(CO3)2,0.02115005249999946
mp-642845,Rb3H5Pt,0.017254593888889058
mp-673706,Li7(Mo3Se4)4,0.003521942035713544
mp-1031392,BaMg6TiO8,0.4891800595454559
mp-22542,Tm3PbC,0.0
mp-541901,KH18OsN6(ClO2)4,0.3817017179775784
mp-707511,KErP4(H2O9)2,0.18001843940476192
mvc-4908,Ca(MoO2)2,0.0
mvc-2993,Ba2YTlW2O7,0.4839493917307545
mp-765383,LiV3O5F3,0.08639974921295845
mp-976713,HoH2ClO2,0.0
mp-7550,CeNbO4,0.0
mp-761614,CoCu(PO4)2,0.024795907708332617
mp-531840,MgAl2O4,0.009626302040815382
mp-9144,LiAsF6,0.0
mp-1080432,K2Se2O,0.273493968916668
mvc-11972,CaHoMn2O6,0.013453942333370605
mp-24814,KBH4,0.3150492933333324
mvc-4634,Al(WO2)2,0.7088808830357145
mp-27609,U3Fe2Si7,0.0
mp-10117,Mg3(Ni10B3)2,0.0
mp-1018822,NdZnIn,0.0
mp-782725,MnOF,0.0812128370833376
mp-1033692,HfMg14CdO16,0.2288108911718761
mp-865318,Lu2MgRu,0.0
mp-9453,Sr2ZnCu2(SO)2,0.08275996208333591
mp-558569,SiO2,0.07310858486111194
mp-1074346,Mg4Si3,0.17685821730158846
mp-777719,LiV4O5F7,0.052874553529398405
mp-555391,NaVF3,0.07929244049999884
mp-1016228,Mg3Co,0.23676376343750016
mp-542461,Se,0.005589947656249983
mp-554095,NiRhF6,0.0
mp-15144,ZnAg2GeO4,0.016502622760397045
mp-776805,Li4Mn3Cr3(SnO8)2,0.0018309653571506601
mp-542121,Rb4Nb2Si8O23,0.0
mp-1021168,CeHfMg6,0.14733394562500024
mp-867283,Ho2CuRu,0.0
mp-767281,Li6MnVP2(CO7)2,0.06358024647836212
mp-773171,TiMn(PO4)2,0.0144477987152829
mp-769858,Li4Mn3V2Cu3O16,0.08174996582534623
mp-705398,LiFeP4O13,0.11894705124999927
mp-29641,GeSb4Te7,0.8504386641666652
mp-504510,MgV2O6,0.0
mvc-822,V4ZnO6,0.1827814552272713
mp-704101,Mn4C15S4O15,0.5893007447650351
mp-32013,Na5MnO4,0.002766554499998186
mp-25510,Li3CrPCO7,0.07093053944711336
mp-572707,SeS4N3Cl5,0.10863626881074584
mvc-5377,MgAgAsO5,0.1371213184114577
mp-763922,Li2FeCo3O8,0.060957308906253616
mp-11623,LaInO3,0.006091945999999736
mp-28930,KC8,0.0
mp-8333,RbNaSnF6,0.0
mp-21900,Ce(SiIr)2,0.0
mp-1080857,CeSe2,0.5359702506250006
mp-853221,Li2Cr2(PO4)3,0.028800813328949463
mvc-14214,ZnCrF5,0.04220220285714493
mp-769757,Li6CrO6,0.08452965679487345
mp-850374,Li4Mn3Fe(BO3)4,0.004096018541666524
mp-1029811,Y4Te3N2,0.0
mp-600494,CoHCO3,0.33581066444444385
mp-757583,Li2TiCuO4,0.09855473812500293
mp-1035127,Mg14TiCoO16,0.10133458492187586
mp-1034856,LaMg14BO16,0.3172814700868072
mp-976847,Ni3Sb,0.01300876250000016
mp-757159,LiSiBiO4,0.0973846873214308
mp-1036505,SrMg14AlO16,0.15267847927083444
mp-1080161,TeMoWSeS2,0.09245824833333403
mp-776015,Li2Ti3NiO8,0.05488125535713096
mp-583224,EuCo8P5,0.0
mp-7284,USi2,0.04246799187499839
mp-780235,LiSn2(PO4)3,0.014374637500000453
mp-567395,Li15Au4,0.0
mp-675576,K(FeAs)2,0.0
mp-29896,Y2B3C2,0.0
mp-865649,Ti2TcRh,0.0
mp-1098944,BaMg30NiO32,0.07652469546875107
mp-8335,Ba2ZrO4,0.0
mp-25689,FeBPbO4,0.0
mp-16904,Ba2CdTe3,0.0194865562500004
mp-1016119,NaMnO2,0.08711483875000159
mp-559286,Na4Al3Ge3ClO12,0.0
mp-1093842,Zr2MoIr,3.957932619947917
mp-984702,CeDyZn2,0.03633895625000028
mp-17282,SrTh2Se5,0.0
mvc-11614,CaFe(SiO3)2,0.007311000250000531
mvc-3731,CaCrF5,0.0036567664285742647
mp-29404,La2CCl,0.0
mp-26855,Li2Sn(PO3)4,0.04155479532894013
mp-1014333,C3N,0.6505951387800017
mp-8648,TiFeSi,0.0
mp-1032469,Mg6FeNiO8,0.09861045515625033
mp-5970,Ba(CuS)2,0.0024017989999958194
mp-1096723,HfSnPd2,2.6195684904166656
mp-1094569,Li2Mg,0.031130233333334086
mp-975590,Kr,0.0005905966666666582
mp-560538,Na3AlS3,0.0
mp-762429,LiV2(CO3)4,0.09846598000001272
mp-32758,Ag2Se,0.036586501666666216
mp-1481,SnTe,0.2401895450000007
mp-754351,K2CuPCO7,0.006917142473958471
mp-571097,SiH17C11N,0.10034231509722068
mp-766742,Li6Mn5FeO12,0.07045325520831193
mp-552941,Na4CO4,0.15341523222222353
mp-9737,Ba4Sm4Zn3PtO15,0.008305309259254656
mp-763071,Li4Fe3Co5O16,0.07984518032366328
mp-31964,Li2Mn(PO3)4,0.017034028201717174
mp-767275,Li2CoCuO4,0.047100083749997516
mp-1021848,KMg6V,0.2772264237500002
mp-552056,PbCClO2,0.05030194349999738
mp-542983,MnPbO3,0.07425717045833746
mp-1098546,BaMg30NbO32,0.13571673046875074
mp-1026575,Mg14CdSn,0.02246040687500006
mvc-10215,HoMn2ZnO6,0.10772611150000876
mp-767945,Mg7Co17O32,0.06460667041666747
mp-31172,Ca5Ag3,0.0
mp-864672,NbSiTc2,0.0
mp-559382,CoO2,0.02068371916666667
mp-773282,LiMn3(FeO4)2,0.09115345379465543
mp-28867,Ba7Ir6O19,0.008099430732421808
mp-759603,H9CN5Cl2,0.14070975319568646
mp-28269,Cs2SbBr6,0.0
mp-3824,Ta9(NiS3)2,0.0
mp-779997,LiFe2OF5,0.04625059901234696
mp-29662,TlBiSe2,0.0
mp-643279,K2H6Pt,0.0
mp-11262,YbAu4,0.0
mp-755403,Ba2Sc2O5,0.09039596277777663
mp-608100,S,0.4420062148263888
mvc-6576,Ca(SnO2)2,0.06905974500000589
mp-866207,LuCdPd2,0.0
mp-764118,Li3V3P8O29,0.05160636200581781
mp-553977,K4NpS2ClO10,0.0
mp-862945,NaPmTe2,0.0
mp-21416,PuAl2,0.4998312214583294
mvc-11637,Fe3P3O13,0.09404375480263384
mp-29658,ZrNiH3,0.0