mpid,formula,e_hull
mp-567573,Rb2UBr6,0.011482438333333178
mp-552176,Ba2PrNbO6,0.000803650499999975
mp-626543,H3NO,0.20760935618265108
mp-1079570,CeFeAsO,0.0972758486458325
mp-764672,Li3Fe8(BO3)8,0.06260232643893637
mp-560174,NaZn(PO3)3,0.0
mvc-4606,YV2O4,0.2331389370833321
mp-27261,Ba7(BIr)12,0.0
mp-23738,RbMgH3,0.0
mp-773750,V3(O2F)2,0.027198051111126283
mp-771336,Na3MgPCO7,0.023451453461526658
mp-19684,K5FeO4,0.0
mp-19488,Rb2MnSO4F3,0.0
mp-1077901,InCo3SnS2,0.0
mp-616220,Rb3(Cu4Se3)2,0.0
mp-1020163,Na3Li2Al(SiO4)2,0.0058922341145821715
mp-653062,Mo2Cl8O,0.08137711670995529
mp-20265,LiIn2Pt,0.0
mp-1071288,Rb2S,0.08789194166666725
mp-676338,MgIn2O4,0.021950002142864026
mp-622210,Ba2LaCu3O7,0.01895244461537704
mp-753879,Pr2S2O,0.007088419500001386
mp-777869,Fe6O5F7,0.08889059444446179
mp-14246,Ba(AlS2)2,0.0
mp-28270,KCuS,0.0
mp-1019714,CsCa10(PO4)7,0.0
mp-1027169,Te4MoW3S4,0.12585082395833425
mp-1095638,LiMgIr,0.4930020868518521
mp-10881,Ce3AlN,0.0
mp-1002080,CsLiICl,0.26662168750000026
mp-981336,Zn3C,1.0613309643749995
mp-763935,V6O7F5,0.03724184944445952
mp-1017442,BaMg6Si,0.18809288499999965
mp-763328,Co4OF11,0.06006870679687638
mvc-16380,Ca2Sb2S5,0.0
mp-22580,ZrGaNi2,0.018891713901515672
mp-765912,Ti(CoO3)2,0.10962110416666793
mp-978503,SmBeO3,0.28302017374999977
mp-1030101,Te4MoW3Se4,0.03691467812500093
mp-775663,TiMn(PO4)2,0.03136448135417247
mp-763329,Li2Fe3TeO8,0.03861396401786088
mp-1034935,BaMg14ZnO16,0.19482338020833367
mp-9107,NaZrCuS3,0.0
mp-694906,Co(Bi3O5)4,0.0189095248485156
mp-1027404,Mo3W(Se3S)2,0.02812090416666724
mp-973261,Mg2SnO4,0.028009830714286643
mp-743771,Ca8V7ZnBiO28,0.008044412333331863
mp-542101,BaCu2Ge2O7,0.01151109810185158
mp-15983,Ba2NaNb5O15,0.01461176956521548
mp-764386,Li6Mn(FeO3)2,0.037737117666666535
mvc-10263,MgSn3P3O13,0.1034694868124948
mp-1094774,SrMg,0.20300730437500009
mp-647725,Os5C17O16,0.2247229162499984
mp-866659,H34C19,0.05946353841981189
mp-570891,KBr,0.07307037499999902
mp-607931,Cs3NaLi2(BO3)2,0.0
mp-33723,BiTeBr,0.0
mp-19521,Al2(MoO4)3,0.0
mp-4409,Cu(RhO2)2,0.020848349999999627
mp-24712,PH5NO3F,0.002549718409094126
mp-764143,Na5FeO4,0.0
mp-776852,Li4V2Ni3Sn3O16,0.08956074386904955
mvc-9996,MgV2O4,0.05387086714284628
mp-22192,Si3Ru2,0.0
mp-861866,KNdGeS4,0.0
mp-204,CeFe2,0.0
mvc-8733,CaSi4NiO10,0.12184966437499688
mp-759596,LiBiP2O7,0.06183365280303299
mp-1079332,HfCuSiAs,0.0
mp-561328,SbSe(BrF2)3,0.0
mp-685633,Y10U4O27,0.0
mp-10566,Lu3BC3,0.0
mp-1018101,AlCo3,0.12159800750000027
mp-7800,LiSmO2,0.009257451718750257
mp-1026850,RbLiMg14,0.1502996781249999
mp-25629,LiVPCO7,0.04802060750000958
mp-767327,Li4Mn3Sn(PO4)4,0.03298797943454268
mp-1098638,Mg30TiAlO32,0.06253703571875048
mp-695963,K2NaH10IO10,0.0
mp-1095292,GeF2,0.016887950000000096
mp-1916,YbSb,0.2685266460416673
mp-866845,CaSnS3,0.1638468697500004
mp-4019,CaTiO3,0.0
mp-9475,KNO3,0.014330272499999632
mp-707343,ZrH12C2(NF)6,0.0
mp-779899,Fe6O7F6,0.107810331513166
mp-861179,Zr7VO16,0.030564757708338774
mp-694888,Ba8Mn8O21,0.0
mp-770107,Fe2CuO4,0.06476566071428191
mp-28590,Hg4As2I3,0.0052796438888891295
mp-1095228,PuB2C,0.2717340380729176
mp-20759,SrMnSn,0.2173110333333339
mvc-9677,Ba2AlCr2F11,0.012032523828126251
mp-866218,Ti2MnRh,0.0
mp-565601,NaFe(SiO3)2,0.0
mp-1096326,KNaHg2,0.5886827856250001
mp-4967,MgSO4,0.001066000416678925
mp-642823,Dy2V2O7,0.013813826590912015
mp-764115,V3O7,0.09924601133332978
mp-8414,K2HfF6,0.03584037444444377
mp-571,TiNi,0.04888230749999956
mp-1034026,Mg14TiBO16,0.24108277882031184
mp-1026796,LiMg14Mo,0.12498187562500007
mp-999294,Pd3N,0.3659279894049981
mp-642190,Ni3(BiS)2,0.0
mp-759333,Na7Ti11O24,0.023117261369034026
mp-626012,Te(HO)6,0.049614985769231616
mp-978952,SnPbO3,0.11635985574999808
mp-1073416,MgSi2,0.19922317092592845
mvc-16179,Y3CuGeSe7,0.0
mp-752798,CeTh2O6,0.0054669088888879
mp-1076890,K4Na4Mo5W3O20,0.2549926582638866
mp-10279,Ho3GaC,1.614574446999999
mp-972042,Zn3Cu,0.0012775112500005292
mp-1023278,BaMg6Al,0.19004570010528066
mp-1093919,Ta2TiMo,4.6348399080555565
mp-766067,Al15Fe9O32,0.026325911116074963
mp-9157,K3AlO3,0.0
mp-570744,Si3As4,0.07167499827380919
mp-1032617,Mg6ZnCoO8,0.0645302493749993
mp-705581,Al2CoO4,0.051573610892856614
mvc-8878,MgTiCu(PO4)3,0.05190981819444485
mp-570693,SbSe3N2Cl7,0.1728777413886542
mp-1099938,K3Na5VMo7O24,0.08043212435414304
mp-540607,NaZnMoHO5,0.006906408472218573
mp-1079673,ThSe3,0.0
mp-761164,LiNbF5,0.08901367990476228
mp-1028263,RbMg14Sn,0.15266749632812515
mp-776065,Ni3(P2O7)2,0.06483125005953383
mp-12645,LiHoO2,0.0
mp-772753,Li3ZnPCO7,0.04260886778846018
mp-642740,CsLi(H2N)2,0.0
mp-675921,Ce3NF6,0.07537139133333247
mp-849550,LiFeP2O7,0.09232844215909086
mp-570525,LaZnRh,0.0
mp-1071536,USnAu,0.0
mp-540481,Li2CrP2O7,0.0
mp-10371,Cr2GaN,0.02878962833333265
mp-558863,H9C5NO5,0.2693767888124983
mp-2823,NdP,0.0
mp-505540,TiAsRh,0.0
mp-1009222,MnTe,0.03661358749999888
mp-977414,ZnCu2SiS4,0.0
mp-853240,LiCoO2,0.07199598937499907
mp-1034386,CsMg14TiO16,0.3140698519140619
mp-761763,Li2FeCo3O8,0.06735659354911139
mp-768968,Li4B4Sb2SO16,0.0946736564608921
mp-771579,Li7W5O16,0.038429235357143376
mp-541337,BaYb2NiO5,0.05636993972222281
mp-709069,Ti2P4H9C2NO16,0.03810053327206031
mp-27662,CsI2Br,0.0
mp-770069,Li4CrFe(WO6)2,0.07752217098612846
mp-961695,LaCoTe,0.3319899733333349
mp-554615,KEr(PO3)4,0.006546718333332535
mvc-3151,Ca4Ni5(TeO6)3,0.07298840172222221
mvc-8907,LaFeTeO6,0.12967412569443315
mp-677413,K2SO3,0.6999318917708335
mp-690653,NaH3CN4O,0.07941835125000285
mp-705116,Sr2MnMoO6,0.006797804499997896
mvc-13808,MnN,0.2641982150000004
mp-1692,CuO,0.0
mp-756431,Li2CuSnO4,0.06771297718750002
mp-685512,Ag15Bi7I40,0.15228254709677413
mp-978882,SnBi3,0.13795436500000013
mp-997588,La8Al7BO24,0.1196407820000065
mp-542944,Cs2CuH12(SO7)2,0.00793114072580714
mp-631527,In2GeB,0.9160369495833338
mp-631269,LiIrRh,0.7754876394444449
mp-20491,LaInCu2,0.017175475568182108
mp-10018,Ac,0.011088412500000366
mp-774800,Li15Zr7(Cu3O14)2,0.054805986785710914
mp-10480,CsAg5Se3,0.0
mp-766919,Li8MnCr3O12,0.09924008833333353
mp-11231,YAl3,0.019624951249999082
mp-699447,RbLiH4S2(NO3)2,0.0536925247091089
mp-764518,LiFe8(BO3)8,0.07272813493901431
mp-1095063,YFeGe2,0.061733145916668335
mp-694049,NaCa4TaTi4(SiO5)5,0.001891942875001717
mp-755004,CsInO2,0.057100758750000764
mp-18317,Na5SnP3,0.0
mp-631280,MnTcOs,0.6934372729166682
mp-853257,NaV10O15,0.04954722181089544
mp-762572,Mn6O7F5,0.07374910743057228
mp-1080037,Th(SiIr)2,0.0
mp-625105,H2CO2,0.5602974199999995
mp-26585,Li5Sb2P5O18,0.026334798194457498
mp-1036919,Mg30CdCoO32,0.016389339453125373
mp-1094183,HfMg,2.1575735074999995
mp-672684,Zn6Sb5,0.21210085602273174
mp-975812,PrSm3,0.0158770031250004
mp-769584,NaMnPCO7,0.00816136363636577
mp-680728,K6Fe24S26Cl,0.08689414333333456
mp-1095760,MnGaCu2,1.8552089808333343
mp-632724,ReH8(NCl3)2,0.0
mp-1009836,ZrN,0.8776843200000002
mp-29973,SrN,0.0
mp-32430,LiVPO5,0.031613935625011365
mvc-937,CaV3(P2O7)2,0.009760412301124788
mp-9397,HfTlCuSe3,0.0
mp-1038614,BaHfMg30O32,0.15164431265625036
mp-1944,CoP3,0.0
mp-743529,NaCoP3(H4O5)2,0.07422548695652242
mp-697624,Zr6Al2NiH10,0.119656647960527
mp-27334,Tl3FeCl5,0.005568161111111802
mp-767838,LiFeSiO4,0.06204709999999381
mp-761804,LiMnPO4,0.05581101158730206
mp-763893,Li7Cr7P6(O8F)3,0.026260626365245617
mp-775752,Li6VSn3(PO4)6,0.08567951590623668
mp-998866,C,2.7543951425
mp-772869,Ta7InO19,0.03677319759259312
mp-1023945,Te2MoWSe2,0.06978227000000015
mp-705427,Ni4P4O15,0.05775597407609113
mp-12734,NdAl3Pd2,0.0
mp-680180,K3Co(CN)6,0.07652113769531255
mp-779198,Li32Mn13Cr3O48,0.004808734583331642
mp-20862,CoSe2,0.0
mp-1062345,Li2N,0.2409764320833334
mp-1039086,Ca5Mg,0.04274691625000005
mp-23694,LiBH,0.07416318373456665
mp-697196,Ta,1.2109274586363643
mp-775991,CrCo3(PO4)4,0.04627013791666723
mp-766725,Zn3Co9O16,0.033503049257519464
mp-556965,NpAgSeO5,0.02200189648437512
mp-32022,LiMnP2O7,0.01951142568181829
mp-250,Mg2Ge,0.4676213883333333
mp-541102,Sc6C2I11,0.0
mp-976414,Li3Zn,0.004614732500000107
mvc-3742,VZnF5,0.04882355071428357
mp-28189,FeSeCl7,0.0
mvc-16268,YMn3O6,0.15579470029162934
mvc-11094,CaLa2VO6,0.0412968442499988
mp-1028027,YMg14Mo,0.15307088062500007
mp-21666,Nb3(Fe10B3)2,0.0008088360344817858
mvc-2080,Ba2MgCuSn2F14,0.16911527174999907
mp-778060,Li2VF4,0.01712041892857119
mp-601420,Ce(SiAu2)2,0.006945707500000786
mp-667418,As5Pb3S10,0.13330238652777915
mp-554430,NaCu(IO3)3,0.0006498921428583767
mp-554909,Ba3MgIr2O9,0.0
mp-547898,Rb4CO4,0.2026404133333326
mp-680761,Cd3(PO4)2,0.0
mp-13875,Al8(Pb3O7)3,0.0
mp-758031,Li4Sn(PO3)6,0.05334823785919518
mp-23279,KBi2,0.0
mp-973545,Ga3Te,0.2048549237499997
mvc-2602,Ni5O7,0.20069602246528007
mp-772443,FeSn3(PO4)6,0.05754069288603603
mp-721312,Na2H2CO4,0.0011892500000003634
mvc-4168,Ca2TaSnO6,0.10939135807142186
mp-1100319,Ni15O16,0.05014753048387099
mp-977545,ZrTc2W,0.0
mp-672339,Ag2Hg7(P4I3)2,0.012033278826086844
mp-32321,LiNiP2O7,0.0674989606628813
mp-1025458,SmAl2Ni,0.0
mp-978099,K3Gd(PO4)2,0.0
mp-754973,Cs2NpO3,0.04603309583333548
mp-778029,LiMn2(BO3)2,0.07692019068181466
mp-565657,Mn3(PO4)2,0.004800492692300651
mp-554473,Na2MnGaF7,0.0006469823484849258
mp-566111,VPO5,0.002464928571429325
mp-541686,K3GaS3,0.0
mp-11332,UB2C,0.0510903181250022
mp-1071921,CaMnGe,0.1349297216666656
mp-972916,MgCu,0.035152396666666696
mp-1098676,KMg30MnO32,0.05668671253906244
mp-624929,CdInGaS4,0.3072059024999989
mp-1079583,Rb2NaAlF6,0.0
mp-31870,LiFeP2O7,0.027234664090909355
mp-626112,H7NO6,0.037131052321429436
mp-626512,FeHO2,0.06327407968750087
mp-690435,Li7Mn11O24,0.039843702189629404
mp-1073398,MgSi2,0.23425839175926155
mp-569804,Er5Zr3(Ni4As3)4,0.0
mp-105,Te,0.042142107499999686
mp-1094124,LiPH2,0.3701089530821435
mp-762380,La9Mn10O30,0.015185496785720787
mp-1076492,La6Sm2Co7AgO20,0.07744899850694775
mp-765262,Li3Cr(BO3)2,0.034421332708329366
mvc-11552,CaCrF6,0.0
mp-1095535,YGa4Ni,0.0
mp-29954,Tb16B4Br23,0.0
mp-9483,Zr9V4S,0.03852834133928695
mp-542697,Rb2RuO4,0.0
mp-769971,BaGa4O7,0.0
mvc-16210,ZnBi6P2O15,0.0003105894444450641
mp-1094081,Rb2Ce2Fe4O11,0.10721811526316127
mp-2781,ScPd,0.0
mp-1080129,SmSnRh,0.0
mp-766668,Mn6OF11,0.0337162845138943
mvc-12617,Ca(NiO2)4,0.11263096923075545
mp-1078132,La2Fe(SeO)2,0.0
mp-21222,Sm2InGe2,0.0
mp-1018729,HoZnIn,0.0
mp-975972,PrLuMg2,0.011853574999999505
mp-770177,Li3Fe2P2(CO7)2,0.041211602567935664
mp-997043,PbAuO2,0.020822742500000047
mp-28536,BaSe2O5,0.0
mp-764285,VOF3,0.09482007950000247
mp-778716,CrO3,0.06447840843750098
mvc-7638,Ti2ZnCoO7,0.2026619383791859
mp-556423,Na2Si2O5,0.0011906016666625163
mp-1099166,YMg14NiO16,0.1215099310937493
mp-16792,Ba4LiTa3O12,0.0
mp-30019,ZrCu2Te3,0.0
mp-662534,AgIrF7,0.0
mp-557583,TlInAs2O7,0.0
mp-559388,U8FeS17,0.0
mp-984051,CsGeO3,0.5724109334583369
mp-1040090,CsCeMg30O32,0.17525430668269235
mp-961718,TiAsRh,0.4441644141666661
mp-760980,FeCu5S4,0.10042833574999754
mp-567220,Hf2SbP,0.0
mp-1022637,RbYMg6,0.28452811625
mp-558853,AsC3N3F8,0.05679616648233132
mp-560777,K3Hg3S2Cl5O6,0.035412945488720204
mp-777081,LiV4O5F7,0.08869590617645784
mp-561197,TaF5,0.0
mp-865922,FeH4Br3N,0.004075654999997624
mp-28602,Na3ClO,0.0
mp-13427,Sr3Hg2,0.0
mp-16366,Cu2Se,0.12669785499999975
mp-532160,Ca14MnP11,0.0
mp-689972,Co(PO3)4,0.061948420551469326
mvc-6340,Ca(MoO2)2,0.18593556535714306
mp-5360,Ba3Nb16O23,0.0
mp-21010,PrSnRu,0.0
mp-764148,V3O5F,0.024402690555549
mp-27805,Ba3SiS5,0.0
mp-865350,Lu2Mn12P7,0.0
mp-4997,ZrGeS,0.0
mp-684744,Fe2N,0.05266075499999978
mp-744702,MoH6NO3F2,0.05014869106230879
mp-762539,Li2FeSiO4,0.0731924187500006
mvc-586,YAg(WO4)2,0.03270628020833398
mp-572332,Cs2Sb2OF10,0.0029715899444386906
mp-549695,GdBi2ClO4,0.0
mp-770493,Li5V2Fe5O12,0.02184923947914541
mp-1003766,NaMn2O4,0.03848997857144276
mp-13243,ScU3Sb5,0.0
mp-768680,CrP2S7,0.0327145808750009
mp-542724,LaNbO4,0.0008662433333341826
mp-867883,La3Pb,0.0
mp-776715,Li3Fe2F7,0.05854908583333353
mp-555909,Tb5Se2Cl3O10,0.0
mp-1097000,InAgS2,0.08190634750000036
mp-756276,CeHfO4,0.07111061041666566
mp-1023124,Co2MoS4,0.3439079423809508
mp-753524,La2(BiO2)7,0.08638811206521703
mp-17838,KTb3F10,0.0
mp-1093564,LiMgGa2,1.4641018884374997
mp-555099,Na3Eu(CO3)3,0.0
mp-683831,Fe3MoC11SeS3O11,0.5761845853611103
mp-504909,Ni2SnP,0.0
mp-1036254,CaMg14BiO16,0.2018297898697909
mp-864611,Nd2IrRh,0.048343751517858635
mp-555732,YbPS4,0.07137068583333406
mp-698706,NaCoP2HO7,0.0
mp-774134,Li2CoO2,0.1449904654999994
mp-1022598,Mg6NbZn,0.1685859882812495
mp-559923,Nb(PS4)2,0.0
mp-775617,Li4Ti2Nb3Ni3O16,0.09591406866071406
mp-680468,Tb6In23Pt12,0.014733937804875197
mp-1036147,SrMg14MnO16,0.09642879812500116
mp-1009685,RhC,1.0933258062499993
mp-783908,Li4Cr3Cu3(SbO8)2,0.0424316098065427
mp-746690,FeP3(H2O3)3,0.0698156384774462
mvc-3393,Nb2Zn2FeO8,0.022544240000001103
mp-1096315,Ti2FeCo,3.4464386025
mp-19867,NpAs2,0.0
mp-28905,SrC20,0.2651500387301571
mp-17404,Y2Si2O7,0.01030553727272121
mp-603940,FeH12C4NCl4,0.08513711025568149
mvc-8156,ZnSn(GeO3)2,0.07444136800000045
mp-768771,Li3Bi(BO3)2,0.04007749124999993
mp-779378,Na4NiO4,0.09092436775463142
mp-606470,RbMnO2,0.0
mp-762008,LiNiPO4,0.1016772555952432
mp-1078026,Ti2FeS4,0.009285616530611662
mp-976447,NaCrH8(NF3)2,0.013082393749998644
mp-505403,K2WO8,0.13576502045454486
mp-6995,SrAl12O19,0.0027829526562497264
mp-36209,TmCuSe2,0.0
mp-763522,Li3V3(PO4)4,0.051286955384632016
mp-672294,Eu(CoSi)2,0.0
mp-972309,Ta2BN3,1.128626599722223
mp-637637,CeRhC2,0.11746060749999998
mp-1021678,HfMg6V,0.2331037381250001
mp-1070321,NdSi3Rh,0.0
mp-1009230,NdAs,0.4302933099999997
mvc-15147,V3(P2O7)2,0.025343063736260163
mp-761290,Mn5O8,0.07812693990383758
mp-28862,Y6RuI10,0.0
mp-677499,Na5Ti7Al(PO4)12,0.0034723672753411705
mp-36381,Sn(PS3)2,0.0
mp-15077,Ag7AsS6,0.0034222917857111845
mp-15206,Ho2Si5Ni3,0.0
mp-4978,Ti2AlN,0.0
mp-600515,Mo2H26C8N2O5F6,0.16164480052721153
mp-1777,Li15Ge4,0.0
mp-1094403,YMg2,0.07519101666666694
mp-865026,Mn2VSi,0.0
mp-1093884,ScAlRu2,3.253864055000001
mp-677222,Ba3La3Ti4NbO18,0.06657360405172774
mp-978974,SnRh3,0.015238515624999671
mp-32899,Li2S,0.07532523393939439
mp-21707,Er2CrS4,0.05202247994047672
mp-29755,CaSi2O5,0.0933305649999987
mp-656207,Sc2H10S3O17,0.4193724946093749
mp-1094545,MgSb2,0.2580508213888897
mp-975050,Rb3Co,0.8790922350000001
mp-780590,Fe4O7F,0.11371054796875325
mp-1095635,Lu(P2Rh3)2,0.014035566363636677
mp-738629,CsGaH24(SO10)2,0.0
mp-560463,Li2B4O7,0.3127982003846119
mp-561907,Cs2AgF4,0.000996331428571029
mp-684713,Al2O3,0.20333319800000016
mp-976259,LiTmRh2,0.0187523125000002
mp-707327,Na4Sn2H26Se6O13,0.011827891258168854
mp-554465,RbFeF3,0.19675729000000075
mp-1032691,Mg6FeSnO8,0.2105780325
mp-631330,LiTaW2,0.6089898116666674
mvc-15891,MgCoO3,0.08016066237500485
mvc-3021,Ba2Ca2Tl2Co3O10,0.06756005789473908
mvc-12562,MgMn2O4,0.12388414321429853
mp-761663,Li2CoP2O7,0.06952725850692154
mp-709723,Al2P3H17C4(NO6)2,0.0557207048750028
mp-865339,Tm2GaOs,0.0
mp-674343,Ti10Cu7S20,0.03356751608107533
mp-1079228,Ga4BiAs3,0.0740651306250002
mp-762455,Li4(FeO2)5,0.04656152615131415
mp-9130,CrSbS3,0.0
mp-557929,Tl(Cu3S2)2,0.017861848636358424
mp-862673,LiY2Ru,0.0
mp-700127,Pr5(Mo16O27)2,0.22097688413003705
mp-776911,MgO,0.0914317212500002
mp-550081,Ba2LaIrO6,0.00036329999999917817
mp-42036,Nd6Al7Si5N3O25,0.03672500423910385
mp-1031931,YMg6BO8,0.4772846953263912
mp-764288,Li3MnF6,0.0292563704999953
mp-15813,Mn3W3C,0.0
mp-635441,SiI4,0.0
mp-7302,CrP4,0.0
mp-1096081,ZrSiRu2,3.56772224875
mp-690578,Nb2SiTe4,0.27006000107142825
mp-555759,Re2(HgO2)5,0.00017530338235172138
mp-11794,AlAgO2,0.06368835250000338
mp-505179,NaH6BrO5,0.057144122371794566
mp-510687,DyAgPb,0.0
mp-764178,Li3V3P8O29,0.0455212344476772
mp-1022484,Mg6ZrW,0.32137141343749986
mp-780686,Fe2O3F,0.07903142314583178
mp-581165,Cs2Xe(BrF7)4,0.0014040670000001756
mp-1097243,KBaHg2,0.96526818625
mp-772260,Li10Ti4O13,0.08515300000000625
mvc-9149,CaNi2(PO5)2,0.3528986950555497
mp-699382,Fe2(MoO4)3,0.7065696311764738
mp-777413,CeScO3,0.01896638412499918
mp-557581,ZnH2(CO2)2,0.11867852185185425
mp-1022041,Mg6CoMo,0.2605012950000005
mp-19100,Sr2CaMoO6,0.06496467350000046
mp-558473,Ba2NdRuO6,0.0012166860000046849
mp-1091389,EuInPd,0.00591275166666705
mp-5878,KZnF3,0.0
mp-778023,LiMnCo3O8,0.03784414096153554
mp-1001844,HoN,0.9367821200000002
mp-758498,Li2CuSiO4,0.07417751562500198
mp-1038610,BaMg30CO32,0.20512148978515746
mp-579536,CsCu2ICl2,0.0
mp-781703,Fe2O3F,0.11327044281249865
mp-744032,VH12C2S2(O2F)6,0.15092909401190102
mp-1019278,TbGeAu,0.0
mp-29362,GaCuCl4,0.0
mp-766332,BaCa2I6,0.09431638819444466
mp-20775,CeDyS3,0.0
mp-687088,Co2TeBr2O3,0.0
mp-763197,Li2VO2F,0.10217787124999766
mp-763060,LiCoPO4,0.04920373482142981
mvc-7470,CaCuBiO5,0.257784166250004
mp-600067,SiO2,0.026803834702379348
mp-976262,LiMg,0.02366884333333364
mp-556826,Ca(BO2)2,0.01695518833333054
mp-677597,Ta4AgS8,0.0
mp-744639,Cr2Hg2H2O9,0.016206261833325186
mp-773511,Co5NiO12,0.02859451009259395
mp-771619,Li5Cr2Ni3O10,0.034765648499999635
mp-1094528,ZrSn,0.17180848333333198
mp-561194,La10S14O,0.0
mp-1076891,K2Na2Mo3WO10,0.2369750865277753
mp-756933,TaTlO3,0.00235551275000212
mp-643365,KH3C2O3,0.13011953548611022
mp-1084797,Ho(BC)2,0.1464335849999996
mp-766954,LiVF5,0.006938817857148114
mp-861175,Li2VF6,0.09728482555556894
mp-1094605,LiMg2,0.022675443333333368
mp-690517,La2NiO4,0.17696878857142814
mp-861685,Li6Mn5CoO12,0.05148197666666477
mp-767027,Li4FeSi2O7,0.01965715196428519
mp-540808,S4N4O3,0.4327187456496953
mp-753090,Li2Cu2F7,0.04967140409090831
mp-11212,LaAsPd,0.0
mp-710070,K5Ce2H2S6O25,0.0
mp-554793,YH7C4O11,0.03805657440217392
mp-764704,Li2MnV(P2O7)2,0.005279659640139657
mp-19907,In2Se3,0.316585754333333
mp-1030154,Te4Mo3W(SeS)2,0.09410558583333464
mp-754174,Tb2Nb2O7,0.09295822102272844
mvc-5391,Zn(SnO2)2,0.10213114
mp-762266,Li2Cu2F7,0.06668762727272702
mp-1076444,Sr2Ca2MnFe3O10,0.03560314493059291
mp-775292,Li2V(Si2O5)3,0.0258025530208581
mp-558694,CsFeF3,0.2987254687499989
mp-740718,AlH6N2Cl3,0.0
mp-34169,Zn(InSe2)2,0.0007626614285713983
mp-1036574,RbMg14AlO16,0.19699710265625026
mp-15177,Ho4C7,0.0031952881818186896
mvc-10337,CaHoV2O6,0.0
mp-764551,Li4Fe3(OF3)2,0.06692308133333036
mp-1097664,MnNb2Os,4.102381943125
mp-1036234,Mg14MnCuO16,0.02974007281250035
mp-19917,ZrSiTe,0.0
mp-36582,NaHS,0.0019043500000002207
mp-990552,Li2CuO2,0.0
mp-1025119,LaScSi,0.3470087835555553
mp-780330,Li2MnP4H3O14,0.06299001451390218
mp-774386,Li2Cr3P4(HO4)4,0.03217853270114812
mvc-13321,Sr2YW2O7,0.5072241224166749
mp-772395,LiV(OF)2,0.0
mp-8702,LiGaGeO4,0.0
mp-776007,Ti3Mn2Sn(PO4)6,0.04928655850694419
mp-568161,Nd(NiSb)2,0.051832394000000725
mp-865327,TmHg3,0.0
mp-763469,MnCdO2,0.05272955249999978
mp-634900,SrUO4,0.4722593150000325
mp-1094855,La3Mg,0.050415984999999885
mp-21673,Ge2Pt3,0.0
mp-1080109,Cu4S3N,0.6519752145636097
mp-761344,Li2VP2O7,0.05031876567708249
mp-504341,Sb(PO3)4,0.047073063455868265
mp-21520,NaCeP2O7,0.0
mp-686087,Li3(Nb2Cl5)8,0.010246126230830654
mp-1096299,Li2HgSb,1.0604833204166662
mp-867735,PrSmO2,0.096203729635417
mp-19180,VFeMoO7,0.014055129843749016
mvc-8271,MgVNiP2O9,0.037312265654798615
mp-29821,Gd4B3C4,0.0076575609090898675
mp-1038524,HfMg30WO32,0.16623876300781326
mp-765977,Li2Ni(PO3)5,0.08360674013586511
mp-1016217,Mg3Zr,0.1053048074999996
mp-604996,CuH12N2(Cl2O)2,0.013100393809526878
mp-15782,KPrS2,0.0
mp-769577,Li2VCr3O8,0.09178871305059033
mp-21194,NdGeRu,0.0
mp-744919,Mn3Mo2H34C22N16O5,0.2534601271888821
mvc-9682,MgSb2P2O9,0.14112445107142868
mp-761391,LiCrPO4,0.07224893845238345
mp-998713,TlInCl3,0.0
mp-757407,Sr2Tl2O5,0.0
mp-781624,Zn2As2O7,0.012993359318183021
mp-608594,CrWO4,0.08916393333333694
mvc-15001,V2ZnO4,0.0
mp-27594,As4(Pb3S5)3,0.0012945683928577974
mp-569310,Sr(POs)2,0.0
mp-556048,Nb2O5,0.010248833392854095
mp-752933,Cu6OF11,0.014568779565971468
mp-29735,Nb10Ge7,0.6085549000420176
mvc-12386,Ca(FeO2)2,0.09402804035710854
mp-1038199,NaMg30AlO32,0.019151686835938264
mp-849752,Li4Cu3Sn(PO4)4,0.08421003750000723
mp-662606,LuTa6Br13O3,0.0
mp-767314,Li4Mn3Fe3(CuO8)2,0.0519837224776829
mp-10109,NpS,0.0
mp-704145,Li2Mn2(SO4)3,0.00046783223684343517
mp-1029857,Rb3W2N5,0.0
mp-642227,Sb8Pb5S17,0.002932257833333729
mp-557027,Rb2Be2Si2O7,0.0