mpid,formula,e_hull
mp-635347,K2MnH4(SeO5)2,0.2209024846052676
mp-765134,FeOF,0.0697490450000009
mp-623532,Eu,0.04197348499999976
mp-600000,SiO2,0.010376090416666985
mp-560637,GaS5N5Cl4,0.0625537764751849
mp-570218,LiBeH3,0.0
mp-11242,DyPbAu,0.0
mp-540534,MoPO5,0.015352350714254115
mp-850233,Li2Mn3(BO3)3,0.07341037480390256
mp-626268,Ba(H8O5)2,0.00042469148148338576
mp-865210,TmLuMg2,0.00320339249999968
mp-559530,Ti5(PO5)4,0.0
mp-1095287,ScTlP2S7,0.0
mp-862730,LiGaRh2,0.0
mp-778562,Fe6O5F7,0.0951579255555588
mvc-5706,ZnSnAsO5,0.16244933239583226
mvc-2548,Ba2AlTlSn2O7,0.6099341691826909
mp-560045,H5CSN2Cl,0.06735403038655896
mp-542291,Sm2Mo4O15,0.0
mp-755141,NaHoO2,0.007226314999986272
mp-557397,K2MnF6,0.0
mp-626569,Ti3H2O7,0.2811625441666621
mp-781789,Li4NbIn3(PO4)6,0.0056128372368347
mp-646926,GdRu2,0.0
mp-1025722,Te2MoW2(SeS)2,0.08407038499999864
mp-863655,Pm2CdSn,0.0
mp-774561,Zr2(PO4)3,0.012413065845587212
mp-1062643,CoO2,0.4928887791666661
mp-1094795,Mg3Sn,0.09599279250000016
mp-644899,UIr,0.43668714312499896
mp-862940,Er2CuPt,0.0052761078125005394
mp-19044,Na2FeO4,0.06679820642856171
mp-40502,CsTiCoOF5,0.0
mp-23152,Bi,0.0
mp-32727,Y3Se4,0.0
mvc-13047,Ba2CaTl2(CuO3)4,0.20617276107142413
mp-765234,MnF3,0.020839115916666984
mp-558590,U2NiO6,0.11203249592592712
mp-861744,Pu2HgBi,0.0
mvc-621,YW3O8,0.2094800789583413
mp-780318,LiCoOF2,0.07369892200000018
mp-767288,Li6VCrP2(CO7)2,0.07778110620192358
mp-767055,LiNiP2O7,0.07505728111742638
mp-699137,Li4(CoO2)7,0.044312964299994206
mp-859128,Ba2CaI6,0.028278553240740575
mp-708034,H13Se2N3O8,0.2357162408386655
mp-755322,BaNa6O4,0.01806320545454554
mp-28557,Ag2PdCl4,0.0
mp-11018,TlCd(NO2)3,0.04643368739945418
mp-10858,Lu(BC)2,0.023170128750003904
mp-743902,SrLa4TiCr4O15,0.008465838900015399
mp-1073043,Mg2Si3,0.2254287261111099
mp-766548,Li4Ti11O24,0.03990049935897666
mp-865661,YbMgCd2,0.0
mp-1093677,LiAg2Hg,1.0099170625
mp-4638,TlCrTe2,0.0
mp-25672,VPO5,0.005643626428609494
mp-1076516,Sr5Ca3Fe7CoO20,0.013269166625019757
mp-30559,LaCo13,0.0
mp-1008491,BeSiP2,0.9410756187500002
mp-17401,Rb3Sn4Au,0.0
mvc-4567,Ca3Si4(NiO7)2,0.03652438193840535
mp-755792,LuGaO3,0.05393723799999961
mp-2019,LaRu2,0.0
mp-8180,LiNO3,0.0
mp-569704,Tl2Ni(CN)4,0.1325924181999989
mp-560026,Mg5B3O9F,0.0
mp-776363,Zr2N2O,0.001944951749999646
mp-1001019,Mg(ScSe2)2,0.0
mvc-9984,CaLaCrNiO6,0.0618566564166656
mp-1097393,Mg2CdRh,1.83331013875
mp-557022,Sb8Cl2O11,0.0
mp-631440,BiTeIr,1.089350116666667
mp-20449,CeInIr,0.0
mp-972486,Sm3Ti,0.23322466645833284
mp-17871,Ca(Al4Co)2,0.0010740136363640573
mvc-16552,Zn(Mo4O5)2,0.44186147105263096
mp-764498,Mn12O7F17,0.07081953274305341
mp-579234,VP2NCl10O,0.12688239645637456
mp-13474,LiErGe,0.0
mp-1029250,Te2MoW3(Se2S)2,0.04280604333333393
mp-685586,Ag3(Bi2Br3)7,0.10935970210526323
mp-510579,PrNiSnH,0.0
mvc-6883,ZnFe(SiO3)2,0.04046722154166549
mvc-12178,Zn(FeO2)2,0.03988540428571508
mvc-8934,MgBi3O7,0.1364043584090906
mp-567543,UHg3(TeCl3)2,0.0
mp-8700,K2Au3,0.0
mp-541897,Rb2Cd(PSe3)2,0.0
mp-18279,Zr2CuGe4,0.0
mp-1070802,CaC2,0.021321443333333967
mp-19377,LiLa2MoO6,0.001963583666677593
mp-675881,RbBiF4,0.05714918166667093
mp-1023510,YMg15,0.023027928125000097
mp-777906,CoPO4,0.05684282062499867
mp-11445,Y(TiGa2)2,0.010893567142857384
mp-23794,H4NF,0.0
mp-1036912,Mg30CoCO32,0.1243352107031228
mp-582023,La21Fe8Sb7C12,0.0
mp-1518,CeRh3,0.0
mp-2416,YF3,0.0
mp-4171,DySi2Ni,0.0
mvc-5816,CoO2,0.02613950124999942
mp-565711,P2O2F3,0.0
mp-764194,Na9Fe3P8O29,0.0
mp-16483,BaAl9Fe2,0.0
mp-505752,CsMnCr(CN)6,0.21162383150799968
mp-865185,Mg(BeAs)2,0.0
mp-1096498,Ba2NaMg,1.1995176725
mvc-7956,MgCu3(BiO3)4,0.16266333062499694
mp-1019730,EuZn(BO2)5,0.0028119980147209844
mp-541272,LiGe2(PO4)3,0.0014598634722249315
mp-19118,BaNd2CoO5,0.035080694351857566
mp-18929,BaV2O6,0.0
mp-560963,Rb2NaMoF6,0.0
mp-778798,Li32Mn13Cr3O48,0.004624479062497855
mp-774382,Li2MnF4,0.06379960821428643
mp-1096380,MnV2Ru,3.6023154449999994
mvc-980,MgSnP2O7,0.02708786015150899
mvc-2079,Ba2MgTi2CuF14,0.17095394399999275
mvc-12039,Fe5O7,0.19234137458334466
mp-1019271,TaN2,0.9650332019577784
mp-569111,Sr14MnBi11,0.0
mp-733968,BaCaP2(HO4)2,0.0
mvc-9555,MgTi2(PO4)2,0.33993164484798305
mp-850131,NiS2,0.007737609166666105
mp-744,HoP,0.0
mp-754993,SbSeO5,0.0843183242857144
mp-767206,Li2V2FeO6,0.2046352361363564
mp-8475,ErCoC,0.0
mp-780127,Li9Mn2P4HO18,0.06468081284925642
mp-997014,PbAuO2,0.025270611249999853
mp-775967,Mn3NbCr2(PO4)6,0.09418702576387794
mp-510688,HoCoSi,0.0
mp-21651,Ce5Ge2Ru,0.0
mp-1098494,NaHfMg30O31,0.07068043807539848
mp-1080237,Te4MoW3(SeS)2,0.10307315645833537
mp-765145,Na9(WO3)13,0.03268387530054362
mp-774537,Ti2(PO4)3,0.011676205624995715
mp-572726,SbSeCl7O,0.0
mp-972630,SmErZn2,0.006643294999999938
mp-21431,HoIn3,0.0
mp-779967,Dy2Mn2O7,0.0
mp-567055,CuMoO4,0.028407028958508995
mvc-8773,Mg(SnO2)4,0.2061688107692321
mp-1093823,CaMgCd2,1.3024065675
mp-768311,Cs3NO4,0.03446374798611096
mp-560398,K2Zn(GeO3)2,0.0
mp-27931,Rb2SnO2,0.0
mp-1028732,Te2W2SeS,0.07490193458333394
mp-1024958,ZrHCl,0.07497225333333457
mp-653930,CuAs2Pb8Cl5O9,0.0014006359634199939
mp-684653,Cu2Se,0.13101035499999947
mp-1033841,HfMg14BO15,0.35611932326612994
mp-29844,Tb(AlCl4)3,0.0
mp-558046,KMnF3,0.0
mp-1098016,Li3Eu2(BO3)3,0.1721082436764707
mp-5646,NdSnAu,0.0
mp-707989,LaH12S2NO12,0.4334679397321413
mp-637929,Mn2SnC10(BrO5)2,0.5339791236000035
mp-999485,ZnN,0.4596557550199991
mp-565410,Tl4V5CdClO15,0.0
mp-771812,Li4FeCu3O8,0.06025314968750006
mp-1097363,HfInRu2,3.1931739356250004
mp-560627,TeMo5O16,0.009906610754867984
mp-510696,Cs4Sn2Au7,0.0
mp-1074500,Mg4Si3,0.1924494501587315
mp-30711,Nd2Zn17,0.0
mp-566991,La4Cu3MoO12,0.009331857000002051
mp-12287,La3NbO7,0.0056799527272684
mp-14356,Dy3MnB7,0.0
mvc-5747,MgMnAsO5,0.07241741809895519
mvc-9752,Zn(AgO2)2,0.1435504289880951
mp-763625,LiFeSiO4,0.05538775571427923
mp-866688,Cs4P2PdSe8,0.0
mp-774910,LiSb(TeO4)3,0.02832122882352728
mp-1028394,SrMg14Co,0.16304697804687507
mp-780153,Li8FeO5F,0.05238260133333128
mp-6799,LiCa4(BN2)3,0.0
mp-867813,LiLa2Os,0.0
mp-863250,TaMn2Ge,0.0127095354687512
mp-906002,Fe,0.002829969999998739
mp-23347,Rb4YbI6,0.0
mp-718,SnPd3,0.0
mp-622041,ThInAu2,0.0
mp-1019362,ThBiTe,0.0
mp-561488,SiO2,0.4853255924999997
mp-865303,Tm2CoOs,0.0
mp-1098344,Mg30SnBiO32,0.14660028343750042
mp-757092,NdAl11O18,0.09298715166666938
mp-1023499,NaMg15,0.03354067281250006
mp-560830,Nd3Si2ClO8,0.013946201428570504
mp-1076887,K5Na3TaNb7O20,0.16642374439814756
mp-761634,Li2MnCr(PO4)2,0.0031127513690636377
mvc-684,AlCr(WO4)2,0.03960218355768497
mp-762776,Li4Ni5Sn(PO4)6,0.08736941865626058
mp-771368,Mn2(SO4)3,0.0
mp-616604,CsMnF4,0.014987397083333853
mp-991709,GdIn3,0.0
mp-559612,KLiO,0.01348102333333312
mp-504605,Na2SiH16O11,0.011207355083333148
mp-768457,Sb2(SO4)3,0.00829420632352118
mp-641497,KFeCo3(PO4)3,0.010841046937474452
mvc-8991,CaLaFeSnO6,0.01953445383332575
mp-1018808,MgCoGe,0.0
mp-540363,VP2O7,0.09513157999999856
mvc-8388,ZnCo(GeO3)2,0.01825949008335748
mp-763754,K2CoP4(HO2)8,0.0
mp-1097482,SrLaCd2,1.7643506799999995
mp-975291,RbLiO3,0.5256011769999986
mp-1071848,Pr2Sb,0.0
mp-763387,Li2Ni(CO3)2,0.08837836727273007
mvc-13160,Ba6YTl3(Cu2O7)3,0.15045074489871268
mp-985286,Ac2Mg,0.012880967499999674
mp-13679,PdF3,0.0
mp-1096959,FeAgSe2,0.19015965375000032
mp-1079867,Li2PrGe,0.15809026500000026
mp-850396,Li2Mn3(BO3)3,0.05321233112743329
mp-21141,Fe2CuGe2,0.02044897233333476
mp-1017242,NaMg6Bi,0.0915744424999998
mp-1096555,Ba2CdGa,1.4675958548611114
mp-1037606,Mg30FeSiO32,0.09779853511718617
mp-1004377,HfB6,0.5408425319047625
mp-542727,Cr2(Co7B2)3,0.01783418206896581
mp-1036860,HfMg30CoO32,0.08641771582031321
mp-6972,YCuO2,0.00110009437500036
mp-765070,Li5CoO4,0.0
mp-567200,Li2InIr,0.09901919749999966
mp-765444,LiSi2NiO6,0.07281981172917007
mp-763752,Li3Mn2(NiO4)2,0.03357499119354568
mp-669393,Dy2Fe3Si5,0.0
mp-1552,Mo2C,0.0
mp-569084,H3AuC2NCl,0.2882379751838249
mp-755138,NdInO3,0.014880431749999978
mp-779125,DyP5O14,0.012219020625000354
mp-557780,CsSi2HO5,0.0
mp-773271,Co(CuO2)4,0.03872540826923032
mp-1028390,HfMg14Co,0.1392553537500003
mp-1097425,CuSiTc2,3.35429411125
mp-781753,Li3CuP2O7,0.09650809153845774
mp-767331,Li2Si2Ni2O7,0.07771359730771188
mp-15897,La4Si2S3O7,0.0
mp-1077355,TbCo2,0.0
mp-568705,YbIr,0.15465438875000004
mp-978505,SmLuRu2,0.006769360937500579
mp-735556,Na2CoH8(CO5)2,0.009240575108695026
mp-21348,Ba2EuTaO6,0.0
mp-19139,Mg2Mo3O8,0.05147495807692337
mp-565651,Pr2Mo4O15,0.0
mp-974724,ReClO3,0.0
mp-566829,VCdO3,0.0
mp-20461,BaPbO3,0.0
mp-11507,Ni4Mo,0.0
mp-763538,LiV4(PO4)3,0.08196993993421664
mp-775261,Li2MnFe(BO3)2,0.0035363554166645272
mp-623028,Cs2NbAgS4,0.0
mp-696075,Ca2H2S2O9,0.07504959372222153
mp-1078929,Hg2Br2N,0.5305097325239974
mp-566625,K4V5CuClO15,0.006951568846154999
mvc-6095,Zn2FeWO6,0.06038952399999875
mp-759322,Li2Nb4ZnO12,0.025835148289473864
mp-13986,Li2PtF6,0.0
mp-982005,Th(Mg4Al3)4,0.04326923176392716
mp-557054,ZnS,0.0011931096428572374
mp-780197,Li2Mn3(BO3)3,0.05957072230390281
mp-15843,Ge9Pd25,0.006358609209558885
mp-1077883,In2Rh3S2,0.0
mp-1095868,Mg2GaAu,1.3958106712500005
mp-772758,Sm2Zr2O7,0.021574737727272364
mp-850768,Li9V6(P8O29)2,0.04691554600188042
mp-1094240,MgSn5,0.06384046624999984
mp-767355,CoPO4,0.01477373624999956
mp-767236,LiFe2(PO4)2,0.06689119471151361
mp-1075191,Mg3Si4,0.2417555947619041
mp-20260,U(SiIr)2,0.01608251799999394
mp-1096032,Zr2ReRh,3.9494700308999953
mp-773272,AlCoO3,0.08277014362500168
mp-9510,Tl2PAuS4,0.0
mp-1877,HoAl3,0.004713065999999877
mp-4763,ZnSiP2,0.0
mp-1096023,VZnCo2,2.5771991967147443
mp-691120,Na3(WO3)10,0.0
mp-601794,NdCrO3,0.000736836500003335
mp-560134,Cs2V(PO4)2,0.0
mp-862788,Er2ZnIn,0.0
mvc-8710,ZnBiSbO5,0.14621592531250194
mp-755544,YTlO2,0.09513215625000004
mp-28180,Sb4F15,0.0006163795102249736
mp-505365,Mg3Nb6O11,0.0
mp-775830,Na3Bi(BO3)2,0.01559566750000485
mp-28603,NaLiSe,0.0
mp-568234,Na4CaSn6,0.0006294562272719517
mp-21495,CrFeP,0.0
mp-771416,Na3Li3Mn2P2(CO7)2,0.03854945576923097
mp-27195,In4Bi2S9,0.005179039999998913
mp-762166,LiNiPO4,0.06904432464286181
mp-504555,KU2F9,0.0
mp-542541,CsPH3O4F,0.0
mp-556892,InBiO3,0.028854712749997624
mp-8890,Cs(SbS2)2,0.0
mp-27508,Li6Br3N,0.06437181700000094
mp-773682,Na5LiMn2P2(CO7)2,0.01646436544871932
mp-23743,AlH12(ClO2)3,0.0
mp-917215,LiFeAs,0.0
mp-28176,Te2PdCl10,0.007005942756410644
mp-1097106,Ti2MoOs,4.163139145555556
mp-973948,LiHf,0.3159904175000001
mp-778694,Li7Mn8(BO3)8,0.024529928989349692
mp-767849,Li11Mn12(BO3)12,0.01925361055164476
mp-22061,In(TeMo)3,0.0
mp-761539,LiMnPO4,0.05851526035714282
mp-762304,BiOF,0.018816879166664968
mp-759360,LiBi(PO3)4,0.09228013902779164
mp-510438,InPt,0.019634595249999443
mp-9259,Ba2Mg(BO3)2,0.0
mp-703302,Cd9(InSe2)20,0.19279772685612875
mvc-2589,Co5O7,0.2730896438541669
mp-560908,V3S4,0.25149432571428765
mp-709027,H20RuC6NO14,0.1053765506547606
mp-978534,SiGe,0.03946561249999992
mp-557420,KBaB5O9,0.0
mp-735541,NiSn2H12(OF)6,0.004921741777776489
mp-743198,Mn2FeAg2(PO4)3,0.9581968592083348
mp-765295,LiV6F13,0.08616771150000346
mp-743638,Li6Ti8Ni(PO5)8,0.002928314285714606
mp-697734,MoP4O13,0.07555162541666771
mp-560040,Ca2Nb2O7,0.00012206795453906238
mp-11324,TaSe2,0.024205003333332968
mp-21279,EuSi,0.0
mvc-3695,Si3(TeO6)2,0.12108429823528954
mp-765157,LiVF3,0.035897801999998265
mp-1099304,CeMg6Cu,0.14248897687499928
mvc-12194,Al10(Bi2O9)3,0.17814156918605484
mp-1017272,HfMg6B,0.5589576265625
mp-504783,Np2S3,0.0
mp-637470,Rb2NaVF6,1.5604999997087532e-05
mp-17895,K3BeF5,0.0014422902777910807
mp-1017591,BaRuO3,0.06940337866666367
mp-979423,YGa3,0.017719378749999848
mp-17808,Nb2Zn4O9,0.0474231511666634
mp-10365,MnCoSi,0.4128504570833336
mp-866008,Dy2TlAg,0.0
mp-14485,LaTa7O19,0.0
mp-764994,Li3V3P8O29,0.04786693375000439
mvc-9744,CaTi2O4,0.12672218827381346
mp-722348,RbP(HO2)2,0.07442117093749889
mp-504884,Cu3AsS3,0.03190090734126905
mp-28035,BaP10,0.0
mp-632250,H2,0.0
mp-775284,Li2Mn3NiO8,0.059279337499999585
mp-27405,SnAsF7,0.07802524259259336
mp-31428,UGa3Ni,0.1308520059999987
mp-639719,Cu3Mo2O9,0.032621562321410565
mp-4793,U(SiPd)2,0.0
mp-1021358,LiMg6Ti,0.1375000666666648
mp-571566,Li2ZnSi,0.0
mp-769285,Ho3ReO8,0.029257235833334505
mp-558256,Li3Ti4O8,0.1279485256666799
mp-11973,YbSnRh,0.0
mp-762537,LiMn6O12,0.036587840723687926
mvc-12889,Ca3Co2(TeO6)2,0.09055395968420488
mp-9535,Al6Cd4TeO12,0.0
mp-980811,TmMn12,0.0
mp-561050,BaCaSiO4,0.07039282767857102
mp-770002,AlCrO4,0.08229677406250158
mp-676572,NdPb6F15,0.030320075303030162
mp-540955,LuH18C3S3(O2F)9,0.12934429727403884
mp-862558,LiEr2Os,0.0
mp-1080650,BaCuSF,0.005532699375000227
mp-766370,CeZr9O20,0.04686658416666845
mp-541145,Ge2C2(SF2)3,0.3065892406421682
mp-763941,Mn6OF11,0.030245139513893626
mp-1018823,NiPRh,0.0
mp-764679,LiFe2(BO3)2,0.05623048198866165
mp-695772,Mo(PO3)4,0.02235352529408896
mp-695998,K2ZnH4,0.0
mp-81,Au,0.0
mp-686467,Sr14La6Mg3Ti17O60,0.007154613624997808
mp-13445,Rb2As2Pt,0.0
mp-780482,LiVP2HO8,0.034490427211566484
mp-761621,VCo3(PO4)4,0.054112897291677335
mp-7074,NaSc(SiO3)2,0.0
mp-571445,HfHg3(SeCl3)2,0.0
mp-1879,SmS,0.2318667124999996
mp-1064300,KC,2.3308976943750017
mp-975579,NdBeO3,0.2607881271250001
mp-557614,Cd(PO3)2,0.013418256250000482
mp-1021165,NaMg6Si,0.13620150450000024
mp-974613,NdP3,0.50465713
mp-758784,YZr4O9,0.06660181846428337
mp-760414,Ti3PdO,0.0
mp-17812,Sm2SiTeO4,0.007394765312499273
mp-767304,LiMn2F6,0.01528371777778137
mp-771963,Ba2LaCl7,0.09252911675000244
mp-771056,Li7Ti5Mn12O32,0.03411166156963752
mp-571661,K2HgCl4,0.04140495500000085
mp-1025702,Te2Mo(WSe2)2,0.027070829444443945
mp-603633,SnP4H8N2O13,0.01036179964286088
mp-763227,LiMnF4,0.07002847111110011
mp-743680,K5HfIn(MoO4)6,0.0
mp-30566,Ti2Co,0.7204937077777779
mp-570428,Sc3In,0.01008079375000026
mp-1077695,Sr3Ca5TiMn7O20,0.05857863065971802
mp-867907,PuSi3,0.0
mp-765980,Li4CuSi2O7,0.0525899989285703
mp-626138,Mo2HO6,0.09132714873016036
mp-864601,LiMg2Rh,0.0
mvc-5019,Mg2CoWO6,0.0559580930000001
mp-707310,K2Zn3P4(HO3)4,0.006172199199995454
mp-1076526,Ca7Mg(Co2O5)4,0.04449385005555406
mp-17639,Y2Zn17,0.0
mp-1094432,MgZn2,0.07768336333333381
mp-23420,Ge19(PI)4,0.0
mp-558817,Na2FeNiF7,0.00013021363634813102
mvc-12098,V4(CuO4)3,0.07467035499999852
mp-4206,UAs2Pd,0.0
mp-25516,Li(FeO2)2,0.01753337169642766
mp-30597,Cu10Sn3,0.025218189230760583
mp-542147,Sn(Mo2O3)2,0.2304303565909063
mp-1038312,Mg30AlZnO32,0.05106927953125062
mp-757158,LiTa3O8,0.03837981375000332
mp-541848,B,0.7083233081481479
mp-569478,Ho4CdRh,0.0
mp-11594,PrB2Ir3,0.0
mp-570777,SrSi,0.04894619749999984
mp-27403,LiUF5,0.0
mp-867208,Sr2LiIn,0.011392732202797795
mp-8285,ZnGeO3,0.03468848566666693
mp-631398,TeOsCl2,1.1484078518749996
mp-19216,Zn2Mo3O8,0.09317748269230908
mp-555331,KGdPdO3,0.035925222083335484
mp-983445,Na3Pt,0.0926974656249997
mp-763697,Li(CoO2)3,0.04522559100000478
mp-558295,CS3N5Cl,0.3502619692385709
mp-771560,Na3VAsCO7,0.039587903493589316
mp-773375,Li2V3O7,0.0703895900694329
mp-505071,Si2Pd9,0.0
mp-680692,Ce4(SiS4)3,0.019160818947368874
mp-1028520,Te4MoW3S4,0.08987922145833416
mp-22863,CuI,0.013519370000000476
mp-770854,Li10Fe3Sb7O24,0.0807392997954679
mp-31175,CeMg2Ag,0.12676167662162194
mp-560450,Sb2SNF11,0.06407332027585344
mp-510508,Ba2(IrO3)3,0.0
mvc-3341,MgVSF5,0.3008615668749988
mp-1098252,RbHfMg6,0.3049031468750001
mp-30803,PuNi2,0.3826948907175858
mp-2103,CuAu3,0.007163650000000298
mp-862697,Er2MgGe2,0.0
mp-25475,CoH4(BrO)2,0.0
mp-623575,Cu6Mo5O18,0.03838783435962245
mp-1094387,MgTi5,0.08554581194444122
mp-775383,Li4V3P8O29,0.047972833825762784
mp-681911,Sm4AlSi5(NO)7,0.6204022221354153
mp-743873,SrLaMnSbO6,0.0
mp-675623,CsClO4,0.15002944125000184
mp-566734,Na2Zr(WO4)3,0.041373806944443814
mp-16972,CsErSiS4,0.0
mp-1095731,Li2AsAu,1.106759849166668
mp-22015,FeCo2(CN)6,0.5088544131906678
mvc-9675,ZnBi2P2O9,0.15715900446428674
mp-651814,CsV3O8,0.0
mp-1091386,Lu2CoGe2,0.0
mp-648163,ReC5ClO5,0.17842769097222266
mp-686377,Lu2FeS4,0.2006898767142875
mp-650840,In2Bi4Pb4S13,0.0
mp-514,HfZn2,0.0
mp-705796,Na10Mn4O9,0.014032658739129287
mp-32456,Li3V(PO4)2,0.025785542857152958
mp-851295,Fe3Ni2P6WO24,0.01908693041685261
mp-560660,Ba4Eu4Zn3PtO15,0.005592295339508446
mp-1093541,Ti2CoRu,3.5207703225000007
mp-1073737,MgSi,0.2392893722222218
mp-772021,LiMnO2,0.040705548000000036
mp-770984,Li3MnV(PO4)3,0.047382413312465836
mp-778377,Ba5Y3F19,0.08902087518518442
mp-22084,Zr(MnGe)6,0.0
mp-26883,Li3Ti2(PO4)3,0.06669610443809226
mvc-5928,WO2,0.32114162166666915
mp-868020,Nb6Cd(Br8O9)2,1.068381649471548
mp-1034901,CsNaMg14O15,0.2688389593548388
mp-1095677,NpSb2,0.0
mp-1091418,NClO2,1.4613935234375028
mp-565313,Na2TbMoPO8,0.004328228461535133
mp-2422,ErGa2,0.0
mp-774135,LiFeNiO4,0.04000694383928583
mp-1013899,LiFe3P3O13,0.043325437718745086
mp-1022582,CeMg6Zr,0.11719576750000014
mp-1023366,CaYMg6,0.033269736874999456
mp-574651,CsSmMnSe3,0.0
mvc-1956,Cu9O13,0.1725135600000014
mp-757588,Y11Ta5O28,0.033155321999988274
mp-569970,ZrHg3(SeBr3)2,0.0
mp-999072,Ti2AlZn,0.28481983999999994
mp-626103,Al(HO)3,0.03103080285714377
mp-764703,Li3Fe4(BO3)4,0.031206968260882206
mp-738686,SbH24C6(NCl2)3,0.03248895712499955
mp-755810,EuZr4O9,0.06014026607142853
mp-774265,NaLi2MnPCO7,0.050533567179487086
mp-1079190,SmFeSb2,0.09499175499999968
mp-756517,Na3CuBPO7,0.059500476799442474
mp-867902,LiSiRh2,0.0
mp-775194,Li2Fe3WO8,0.029407533214270032
mp-34146,Co2CuO4,0.0857438219047646
mp-1078253,MnB4,0.0
mp-769711,Li3Cr3CoO8,0.04173765577778088
mp-699453,RbAs2H5O8,0.0
mp-703461,GeH8N2OF6,0.01559032204148103
mp-776230,LiFeF4,0.012229777685194064
mp-27488,Ta3N5,0.0
mp-850883,Fe4O5F3,0.0805866530729169
mp-769784,Li2Mn2O3,0.09157617976190656
mp-14511,NaAlGeO4,0.0
mp-11368,Er5Ga3,0.0
mp-30519,Tl3PbCl5,0.008430584861111257
mp-865742,YbCdHg2,0.0
mp-767623,LiMn2(PO4)2,0.07212084153846199
mp-982065,PrHo3,0.027072861250000642
mp-532220,Dy(CrS2)3,0.019904046625001115
mp-1098602,HfMg30GaO32,0.10849545566406338
mp-1036070,YMg14CoO16,0.10159748867187536
mp-1026721,CeMg14Mo,0.11463074625000005
mp-766793,Li5Co5(NiO6)2,0.10043653041666722
mp-761541,LiNiPO4,0.0881080320238139
mp-989550,Rb2TlInCl6,0.0
mp-769962,Li4TiFe3O8,0.030326250625001275
mp-744458,MnPH2(CO)4,0.7759302897742995
mp-1027341,Te2MoWS2,0.11830320499999925
mp-1026580,SrMg14Bi,0.09381237162500013
mp-756593,Ta3(OF)5,0.08314607076924041
mp-773308,Li2MnCrO4,0.024722167500020653
mp-771,MnAl,0.0
mp-1093856,MgTiZn2,1.9061571539500002
mp-21670,ThInCu5,0.0
mp-778722,Na2FeO3,0.08281353041666684
mp-780406,Lu4Al2O9,0.036517602083330665
mp-1018811,NbGeSb,0.0
mp-766143,V4OF11,0.001883570000002166
mp-1096735,BaMgHg2,1.1349354609375002
mp-1094115,Na2O2,0.20140768333333448
mp-585206,CoP2O7,0.08191555068750134
mp-990764,V3Se4,0.0006431600000063042
mp-865513,YSbPd2,0.0
mp-13274,Na4CO4,0.12904550888889066
mp-568614,Cs3W2Cl9,0.05607483250000024
mp-540138,MoPO5,0.0061140964285399954
mp-755783,Li2Ti(BO3)2,0.06618041233765659
mp-1079064,PrCoGe2,0.0
mvc-6390,MoO2,0.2734975916666649
mp-1033361,Mg6CrBiO8,0.3839656652864578
mp-697977,Sr2AlH7,0.0
mp-560645,Ca2NbInO6,0.006622676749997503
mp-865908,Yb2HgPb,0.0
mvc-9774,Zn(SnO2)2,0.2292711884523806
mvc-11129,Ca5(CrN3)2,0.106810605192309
mp-545359,KNa2CuO2,0.0
mp-1099860,K5Na3Ta6Nb2O24,0.01192450525000055
mp-30362,Zr3Ag,0.10531273000000052
mp-779530,Cu(PO3)3,0.049060288798070666
mp-1028344,RbMg14Ni,0.21416561062499986
mp-776826,Li4Co3Sn3(SbO8)2,0.017284982142853345
mp-25536,Li3FePCO7,0.029566610769230724
mp-554650,LaH6(ClO3)3,0.08120603407894668
mp-30705,Ti4Ga3Ni2,0.0515968651851848
mp-652479,LiZnPO4,0.000430690624992458
mp-866026,ErNbOs2,0.0
mp-865050,HfMgRh2,0.0
mp-1099325,LaMg6Ga,0.13433297916666387
mp-763464,Zr4MnO9,0.04464944214285893
mp-29355,NaTeF5,0.0
mp-1097979,NdCd2,0.010255770000000108
mp-1033028,SrMg6AlO8,0.3163063166666671
mp-1028039,Mg14ZnCo,0.080032463721875
mp-777696,LiCrP2O7,0.05448678863636491
mp-867474,Li2EuSn,0.0
mp-20176,DyPb3,0.0
mp-863016,RbF2,0.0
mp-20899,UGa3Pd2,0.056465508295454825
mp-25104,La2NiIrO6,0.0017122223333325692
mvc-5721,MgFeP2O7,0.034604532272727966
mp-756597,Li2HfO3,0.0263341833333337
mp-19127,Sr2FeMoO6,0.0014177250000146913
mp-24180,RbH6C2S2NO4,0.21358277933593595