mpid,formula,e_hull
mp-695403,Ba2La2MgTi3O12,0.02654346904166971
mp-867310,CeSnAu2,0.0
mp-644311,CuPt,0.0
mp-3462,TmSnAu,0.0
mp-975103,RbMgPO4,0.005984323214287103
mp-31859,Fe3(SiO4)2,0.0437061378846213
mp-25543,Ca3MnNiO6,0.0036344280303017844
mp-761669,Li2Ti3CoO8,0.03581398392857872
mp-557072,Ba3TiNb4O15,0.015139753550721837
mp-780091,Fe3(O2F)2,0.07748557576388837
mp-1022086,Mg6GaCu,0.09064860749999992
mp-861536,LiMnPO4,0.06992204607142938
mp-556560,MnF3,0.0
mp-776263,Na3CoO3,0.05745062035716144
mp-558861,KI(OF)2,0.0
mp-1022721,AlCu,0.07588176099999801
mp-865796,LuCdRh2,0.0
mp-560023,NiSnF6,0.0
mp-1080213,CaMn4O8,0.07520615649038476
mp-1096951,CrN2,0.3132243372622199
mp-1094697,Mg2Cd,0.03243654416666697
mp-29667,Si2Ni3,0.008060246750000388
mp-765341,LiCuF4,0.03422318666665891
mp-22214,Rb2RhF6,0.0
mp-780274,Hf2N2O,0.0038914937499932014
mp-1064807,YSi,0.0006131449999999816
mp-684609,HCl,0.049540154999999864
mp-29970,Cs3Sb5O14,0.0
mp-631534,NaSrRe2,2.0439923887500004
mp-627209,VHO3,0.1854388647500232
mp-705299,Li2FeP2O7,0.02590592590277918
mp-760425,Tb2Zr2O7,0.02264882011363589
mp-770158,LiMnAlO3,0.07770014124999848
mp-1026679,RbMg14Ga,0.1402072565625001
mp-31746,Li3Cr(PO4)2,0.06717174874985066
mvc-13212,YMn4(CuO4)3,0.03832210656250279
mp-765111,LiVFeP2(HO5)2,0.006460117147060629
mp-1080453,NdAsRuO,0.0
mp-2723,IrO2,0.0
mp-780016,V4OF11,0.009270731250001774
mp-578618,NaMoO2,0.0
mp-1094616,MgGa2,0.037736812500000834
mp-505727,NClO,0.0
mp-1079822,Hf2InPd2,0.0
mp-1080454,DyPdPb,0.0
mvc-10184,Mn2ZnO4,0.020503228571434384
mvc-8350,V(GeO3)2,0.05489331833342348
mp-764960,LiCr(CO3)2,0.07485106249999163
mp-644302,NaHSeO4,0.0
mp-4549,SrSiN2,0.0
mp-761822,LiCoPO4,0.08480685196428707
mp-972925,ScZn2Au,0.02126016695312538
mp-754466,Li2AgF3,0.018949741666666853
mp-707754,CaH2I2O7,0.01805500708333341
mp-978094,NdHo3,0.021512269375000947
mp-604245,BeH8(NF2)2,0.009570433749995113
mp-761564,Li2MnP2O7,0.08984500093750025
mp-1096584,LiGa2Tc,2.08603313625
mp-25695,RbMnP3HO10,0.0
mp-1080658,LiErSn2,0.14063858788194405
mvc-8380,ZnCo2O5,0.2609957888322372
mp-1025108,GdAlGe,0.028560933333334763
mp-861129,Li2Si5Ni2O13,0.05489283590909011
mp-1096105,Ti2NbPb,3.170930793333328
mp-23032,CsCuCl3,0.0
mp-1038735,CsMg30BiO32,0.17790919539062422
mp-8530,Ca(Mo3S4)2,0.019537360500000208
mp-758894,Li2Ti(TeO4)3,0.000765335833331271
mp-569118,Cs3MnI5,0.0
mvc-6969,VZnP2O7,0.0573904342045477
mp-510359,CeSn2Rh,0.0286564873611157
mp-9588,LiP,0.0
mp-780112,Li5Mn8(BO3)8,0.05623233779627768
mp-989461,B2(CN2)3,0.18784975481636226
mp-21901,SrIn4Ir,0.0
mp-770353,LiCr2(SO4)3,0.05292319263385537
mp-1094726,MgTi,0.2667052516666661
mvc-10699,Ca(SbO2)4,0.19494289451923666
mp-14892,Rb9Fe2Se7,0.0
mp-1019738,BaEu2O4,0.0
mp-772577,Li3Ni3SbO8,0.047110928916668016
mp-17701,Sr2NbN3,0.0
mp-5560,Cd3(BO3)2,0.0
mp-982007,YTmCu2,0.011277466874999751
mp-773602,MnCo3O8,0.026748907916672948
mp-23183,NdCl3,0.0
mp-20485,InSe,0.0013706312499999207
mp-1026988,TeMoWSeS2,0.10790501500000003
mp-764128,Na3Fe2(PO4)3,0.04121630912502017
mp-20824,Sr2CaTlCu2O7,0.017582600192306508
mp-631386,Mg2NbFe,0.7226663062499998
mp-10343,Sc2BC2,0.0
mvc-9880,Ba2YMn2F11,0.06044656041666752
mp-23025,LaClO,0.0
mp-775539,K11Mn4O16,0.0
mp-782700,TiMnV4O12,0.06865120736112651
mp-2501,BMo2,0.019579599166668515
mp-971733,ZnGaO3,0.7305495568749985
mp-776888,Ti3Mn2Nb(PO4)6,0.037895213508681636
mp-570292,La7Os4C9,0.0
mp-5313,HoCo3B2,0.0
mp-570480,TcBr4,0.0
mp-542178,Nd2Zn15Ge2,0.04314400258223605
mp-917642,CeGe2,0.0033880450000003393
mp-862264,Sc2ZnTc,0.0
mp-1068267,SrMoO3,0.07144047500000282
mp-668,PrGa2,0.0
mp-29052,Cd(W3Br7)2,0.0
mp-21281,Th(MnGe)2,0.0
mp-849983,LiVF4,0.03393143500001017
mp-1080475,Zn(BrN)2,2.011586030298
mp-16791,KC10,0.2446210222727263
mp-980060,TbAg3,0.011629334999998077
mvc-10389,BaZnAgF7,0.0007691367499953473
mp-1022104,RbMg6Cu,0.34203815812500005
mp-774547,Er2GeO5,0.0
mp-555165,SiO2,0.02648599552083297
mp-1076399,Sr6Ca2Fe7CoO24,0.024642069624937868
mp-19088,Ba5V5O14,0.024226538040540646
mp-510369,Ce5Pb3O,0.0
mp-684036,Ba3Gd2(PS4)4,0.0
mp-1094572,Mg2Sb,0.2313505700000001
mp-30521,ThCN,0.10514502583333396
mp-983444,LiPmZn2,0.0
mp-560321,Mg2SiO4,0.14116537392856987
mp-560718,TeH12AuC4S3N,0.09787566645900904
mp-27303,NaAg3O2,0.0
mp-1008349,Co3Ni,0.0
mvc-5282,MgCuAsO5,0.1296734446875023
mp-1096029,CaAg2Pb,1.4718406010714282
mp-716723,V9O17,0.025579982211546337
mp-764922,VF5,0.08267698333333318
mp-570046,Sr3MoN4,0.0
mp-1585,V3Co,0.0
mvc-12113,Mn2Nb2Zn2O9,0.030799882111111287
mp-1018676,CeSbAu,0.09233664833333324
mp-1026885,NaMg14Cu,0.07275276937500008
mp-22440,LuSiIr,0.0
mp-744756,CoHRu(CO)6,0.31395970333333345
mvc-9980,MgMn2O4,0.02709703142858455
mvc-4245,SbO2,0.4102879191666961
mp-767282,Li2MnSi3O8,0.0815532157142842
mp-400,NdAl2,0.0
mvc-6540,Ca(SbO2)2,0.2207584995833347
mp-1094422,Mg2Zn,0.025883081933334214
mp-565757,Gd2WO6,0.0
mp-773358,Li2Fe2(PO4)3,0.046955599046059504
mp-626794,Ni(HO)2,0.015227321999998544
mp-1008676,TiS2,1.2881141899999822
mp-865141,Lu4Ni13C4,0.0
mp-865531,TiMn2Al,0.0
mp-9957,V2GeC,0.0
mp-1098733,Mg30MnCdO32,0.017420590468749886
mp-628782,V3Pb5ClO12,0.0
mp-1073465,MgSi2,0.2871781774999991
mp-989560,Cs2TlSiH6,0.013017592749999808
mp-868260,Li2Mn2P2O9,0.07232965691667559
mp-570412,Yb(NiP)2,0.0
mp-603,Be2Ag,0.02922725333333265
mp-21319,Ce3TlC,2.0384743345
mp-769929,MnCrO4,0.07274179208334175
mp-29298,Ba4Ti13O30,0.0
mp-1099022,CaMg14CuO16,0.04966153015624997
mp-643902,SnH4(NF)2,0.0
mp-1070665,NClO3,1.4020575095000023
mp-1097193,MgTiPt2,2.327716254687497
mp-764393,LiV(SO4)3,0.03609854862745277
mp-32906,La2S3,0.015409813499999812
mp-11420,YGa,0.0
mp-1027868,HfMg14Zr,0.05438025125000001
mp-1018900,PrCuPb,0.0
mvc-9876,Ba2Cr2F11,0.13886844205555704
mp-746778,MnHC3O4,0.5998270261111127
mp-559223,GdH6C4NO9,0.0
mp-1080179,Pr(NiBi)2,0.0531590270000013
mvc-12655,Zn(CoO2)2,0.2420063913439847
mvc-1364,Ba2V3O7,0.3488951064527077
mp-30051,Si3CCl7,0.06214531589015149
mp-999391,NbFe3,0.1305353899999986
mp-616026,Sr3InP3,0.0
mp-1038638,Mg30CrBiO32,0.10172484272786342
mp-1022141,Mg6CoCu,0.1236293673437503
mp-5377,YTaO4,0.0
mp-976597,Ho2Co7B3,0.0038412875505020594
mp-17661,RbNd(PO3)4,0.0
mp-560231,CuSb2(XeF4)6,0.0
mp-554825,K2SnP2O7,0.0
mp-1032174,Mg6NbFeO8,0.2673292020982183
mp-1096825,B6Pb,0.11680287714285685
mp-979012,Tm2AlZn,0.00736177406250027
mp-780149,Li2Mn3(BO3)3,0.05128218053919832
mp-29882,CsPdCl3,0.00934104733333285
mp-772748,Ba2P6O17,0.0017372513999971413
mp-865490,V2CrFe,0.0
mp-540868,Ca3Si(ClO2)2,0.0
mp-762604,Li8VFe7(PO4)12,0.014128626443250525
mp-560333,Ta2Te4Br10O,0.0016791764411765446
mp-31167,Er5Si3,0.0
mp-853237,Li4Ni2(PO4)3,0.057416740208330985
mp-7359,BaAgAs,0.0
mp-557803,MgSiO3,0.011123169000001987
mp-950995,Li6PS5I,0.002744836730765421
mp-1096462,AlCdRh2,2.52072025625
mp-861607,KNaNdTaO5,0.0
mp-20285,NaPt3O4,0.0
mp-640956,Eu(Sb3Os)4,0.3647772458823528
mp-14488,Li3In2(PO4)3,0.0025434652499995987
mvc-16396,Ca3AlSb3,0.0
mp-776748,Cr2P4H3O16,0.070214173050001
mp-1096266,La2CdPb,2.2100162275000024
mp-557160,NaCa3RuO6,0.0001021850000020308
mp-1094031,VO2,0.01783559458332995
mp-705019,Cr(PO3)5,0.08608930886906307
mp-683897,Pr3Sn13Rh4,0.0
mp-1025379,Tb2B4C,0.0
mp-1019562,Ca2SiO4,0.13997419928571553
mp-693773,ScH16C3S3O17F9,0.16161394984693978
mp-2892,BaNd2O4,0.0
mp-759870,BiOF,0.054052247083332894
mp-771366,LiMn2(PO4)2,0.034445063141027354
mp-773195,Li2NiSn(PO4)2,0.11705921107142547
mp-1464,Nd5Ge3,0.0
mp-629724,Ba2FeO4,0.00015044785714302122
mp-1077293,GdInCu4,0.0
mp-14753,Li7TaN4,0.0
mp-28426,B2PCl2,0.2226757365500012
mp-20747,LiSi3Pd,0.3700657691249996
mp-779579,LiCu5(PO4)2,0.1241916926562503
mp-21647,CeGePd,0.0
mp-772385,LiCo8O9,0.06520568472222177
mp-1912,ZnAg,0.0
mp-625238,Re2H4O9,0.03938817058333388
mp-706251,Cr4H67C20(NO)16,0.26743481116869994
mp-1025195,Nb2VSe4,0.005292300952385531
mp-27251,Bi2TeO6,0.0
mp-763423,Li2PWO6,0.0562972009294862
mp-774143,MnSbO4,0.05242090576389025
mp-763685,Li9(FeO4)2,0.0882435664473693
mp-1074175,Mg4Si7,0.2121786801010117
mp-776803,LiFeF4,0.0696721551851942
mp-773980,Bi3(TeCl5)2,0.029272588772434993
mp-998555,InSnBr3,0.0
mp-653973,KZnPO4,0.0
mp-10413,AgB(CN)4,0.4316446397860005
mvc-3700,Zn3Si3(SnO6)2,0.3045790202499985
mp-530701,Ni5(Mo3Se4)8,0.07533730814207651
mp-4182,CrAgS2,0.0
mp-7567,UGeO4,0.09008536805555244
mp-29218,Ge3Bi2O9,0.005227894464286287
mp-781743,Li3V5Cr2O12,0.08467194249999821
mp-23844,HgHOF,0.0
mp-1037015,NaMg30CoO32,0.02126141718749075
mp-771105,Li5Cu2Ni5O12,0.016489920729174656
mp-651900,CeSiP3,0.0
mp-555515,CuAg4TeO6,0.006287060555558277
mp-568237,CeNiSb3,0.020107489583333304
mp-1028594,Te4MoW,0.01390012291666487
mp-540169,Co3(PO4)4,0.13343324828804534
mp-656,LuS,0.0
mp-559814,Li5SbS3I2,0.0
mp-1096778,Ba2VFeO6,2.4271588242499966
mp-1000440,CrN,0.13726516999999916
mp-28439,KSc2F7,0.008227452750001696
mp-650816,La5V3S6O7,0.06000188567460363
mp-648805,Os7C19SO19,0.21222740929347594
mp-776163,Li8NbFe7(PO4)12,0.006220621858560982
mp-17030,RbMo6Se7,0.013078206249999448
mvc-6291,Ca2YSnO5,0.18157013763888494
mp-606734,NaCrF6,0.03347806406249987
mp-779434,Li5La3Nb2O12,0.058277959886352086
mp-568519,Tm3(CuGe)4,0.0
mp-505511,CoAsSe,0.0
mp-20053,CrTe,0.1326679762499996
mp-16220,Si,0.3396075032352943
mp-676598,TlPbCl3,0.03465119624999957
mp-771163,CsY3O5,0.0051036086110976
mp-2662,MnP,0.0
mp-762858,Li4CrP6(H4O11)2,0.07925084338180087
mp-1096091,Y2AlRu,2.6689189937499984
mp-999488,NaDySe2,0.0
mp-672322,Eu3(B3Rh4)2,0.0
mp-1026972,Te4Mo3W(SeS)2,0.0958629816666674
mp-569199,U2BiN2,0.5741588259999997
mp-1079195,SrMnPF,0.12235122163499935
mp-754469,Er2TeO2,0.0
mp-12626,K2SrBe2F8,0.0024385303846159445
mp-568686,Er5BiAu2,0.3620032931250004
mp-9815,TaTl(CuS2)2,9.709791666701052e-05
mp-773627,Li2Fe3BiO8,0.06710405392857055
mp-850474,Ni(PO3)3,0.04981294956730231
mp-19817,Y3InC,0.0
mp-1077185,MgTiH4,0.0618402325000007
mp-558125,BaTiO3,0.003245359666657066
mp-29320,Te3SeO8,0.009606545208334259
mp-769538,Li3Mn2(SiO4)2,0.09325287624998337
mp-757155,Nb(PO3)4,0.043925885834733336
mp-865406,Lu2ZnAu,0.0
mp-762934,V2Fe3P6WO24,0.0525445730208407
mp-690522,Mo2Cl4O,0.2730157112103164
mp-1019563,Ca2SiO4,0.23218627071428696
mp-1026872,Mg14CuMo,0.13610657718750074
mp-772644,Li6Cr(BO3)3,0.07876415254386071
mp-776714,Li3V2P4(HO8)2,0.024218943333355725
mp-24026,Si3H9N,0.01901480610576911
mp-762798,Li4Fe5(NiO6)2,0.05381422380435375
mp-977242,Hg3Sb,0.17457286500000002
mp-3288,CsNO2,0.0
mp-1027866,Mg14ZrB,0.2844146978125002
mp-19214,CeVO4,0.0465319133333324
mp-542934,CeMg2Cu9,0.0
mp-1038319,CaMg30AlO32,0.047509880434025036
mp-1073822,MgSi,0.21406955638888853
mp-765656,Na5V7O14,0.02771064394230472
mvc-8284,MgNiMoP2O9,0.06424847500000297
mp-996999,CuHO2,0.04699498906250543
mp-19833,InAgS2,0.0
mp-1073210,Mg2Si3,0.29770395461111
mp-24610,LiP(HO2)2,0.0
mp-863858,Li4V2F9,0.0365435808888801
mp-19357,LaCrO3,0.009011134499997908
mp-776623,LiV2F7,0.0707920929999899
mp-771806,Li2Fe(NiO3)2,0.114832665435606
mp-754684,Ba4IrO6,0.0
mp-5616,Sr2P2O7,0.0
mp-4086,La2Sn2O7,0.0
mp-582819,Pu,0.19344205812500093
mp-541761,Zn3As2(HO)16,0.116421304256761
mp-762072,LiNiPO4,0.09478395267857476
mp-861662,CaZrRh2,0.0289687545833317
mp-1094075,P,0.06281652290476193
mp-569482,LaSi2Ru3,0.0857994774999904
mp-696275,SnH8(NCl3)2,0.00663811941176462
mp-19728,YSiRh,0.0
mvc-11309,Cr2S5,0.1430587065624893
mp-1074080,Mg4Si7,0.23053273737373914
mp-667366,PRu5C16(O5F)3,0.2488845372833328
mp-850049,CoS2,0.016185789166669906
mp-1098961,Mg30VCrO32,0.01763539109375234
mp-765909,Li3SiNi3O8,0.05207116616666242
mp-632229,HBr,0.0
mp-11419,ThGa2,0.0019021766666664774
mp-546321,Ba2NdBiO6,0.0
mp-12924,KLaSiS4,0.002294697142857239
mvc-7851,CaCoBiO5,0.09668916028646901
mvc-8281,Zn3Fe4(BiO4)6,0.08342884841216236
mp-1076213,SrCaMn2O6,0.09072693429761358
mp-1079501,Tb2InAu2,0.0
mp-765610,Na11Mn13O32,0.04923967630580695
mp-574620,CsYZnSe3,0.0
mp-758806,B5PH4Cl,0.025889706481819097
mp-1096157,MnTlRh2,2.4005391187500003
mp-866941,CaSnS3,0.08463943474999969
mp-776918,Ti3Mn2Fe(PO4)6,0.011990529965276052
mp-3682,KCuF3,0.005253201999997792
mp-972722,SmAs3,0.23871426249999936
mp-556264,KRb2CrF6,0.0
mp-1022971,Mg6MnCr,0.2477340287500005
mp-2454,TiFe2,0.0
mp-865973,PHPb2F10,0.0
mp-763389,Li2Co(SiO3)2,0.053286091363625054
mp-644229,Sr(AlH)2,0.028029244999999925
mp-23291,PbCl2,0.0058180333333335285
mp-542928,MnGaH4O2F5,0.0
mp-30973,Ni3(BiSe)2,0.0
mvc-14044,Y2Cr2O7,0.01497182704544642
mp-20881,LaNiBN,0.0
mp-984716,CaSn4(PO4)6,0.0
mp-26513,LiCuPO4,0.04785575154763233
mp-1034853,CsLaMg14O16,0.34262857080729425
mp-1079601,ThGaNi,0.0
mp-768373,Ba2YBr7,0.03485196900000265
mp-1098986,Mg14AlVO16,0.1053228800000019
mp-1077354,ReN2,0.02346419142889289
mp-17400,Ba2TaN3,0.0
mp-764175,Mn12O5F19,0.059934045729177925
mvc-11086,V2O5,0.05558959571428268
mp-9915,LiBeP,0.0
mp-3275,PrFeSi2,0.0
mp-28642,Ba3AlF9,0.011358775673078192
mp-782681,FeOF,0.07521460916666456
mp-2444,GaRh,0.0
mvc-3996,CaWO3,0.049812256500000984
mp-6651,K2Ta2(OF2)3,0.0
mp-10203,Ta5Si3,0.11024672499999966
mp-626869,H2WO5,0.11839250234375065
mp-779062,Li3V4(OF3)3,0.0885901207017632
mp-867251,LiZn2Pt,0.0
mp-1080157,Te2MoW3(SeS2)2,0.09320420833333554
mp-867004,Th2Ni7,0.0
mp-31330,NdInRh,0.0
mp-764611,LiFe2(BO3)2,0.0625467247159337
mp-778784,Fe6O7F5,0.1241301703819504
mp-780815,Li2Fe4O3F8,0.054413736895425835
mp-1068446,ScAu4,0.0
mvc-10595,BaMgFeF7,0.013720504750001085
mp-31575,LiCo2P5O16,0.0100468956249955
mp-684082,LiSb(PO3)4,0.04682941638887339
mp-29465,TaCl4,0.02585996826666648
mp-669692,NbPd3,0.0
mp-753285,Mg9CuO10,0.03623888649999785
mvc-160,CaBe3Co2(SiO4)3,0.014897770396827603
mp-770768,Na6Fe2B4AsO16,0.06179573006465855
mvc-6602,Mg(CoO2)2,0.1814740392857148
mp-8711,Cs2Li14Tb3O14,0.043393875000001365
mvc-6165,Co3(AsO4)4,0.20352359456521896
mp-1028413,Mg14GaCo,0.08605861125000036
mp-42599,NaYTiNbO6F,0.0535626613636282
mp-642792,BaBi2(MoO4)4,0.0
mp-1025068,NdB2Ir3,0.0
mp-980069,YbPrRh2,0.010519649999999992
mp-554627,Cu6PS5Br,0.0011414997115384296
mp-850096,LiMn3(BO3)3,0.09768965610675727
mp-541798,MnH4S2O9,0.0006669145625108898
mp-1029395,LiCrN2,0.0
mp-1030449,Te4Mo3WSe4,0.02960653333333418
mp-683891,MnSb6(Pb2S7)2,0.008142807599999635
mp-779878,Na4Bi2P(CO4)4,0.06325443576388601
mp-11854,Er5Ge3,0.0
mp-554493,BiAsPbO5,0.0005494474404734717
mp-39003,Mg3Al14O24,0.01469080170731374
mp-703342,Ti2P2H4O11,0.005524891710533275
mp-625614,H9BrO4,0.0189101532142848
mp-657749,MnAgO4,0.864209180694445
mp-1016902,ZnSnO3,0.7125055829999996
mp-555984,EuCu2SnS4,0.03025980749999935
mp-861573,Li3Al2CrO6,0.013681307083333928
mp-571224,Nb5Sb4,0.2615259499999993
mp-782656,Co2OF3,0.04900240645833076
mp-33300,Fe5CuO8,0.0670674285714492
mp-767994,BaV8O16,0.01708953365000809
mp-31352,Er2(SeO3)3,0.0
mp-759095,LiSn2P4H3O16,0.04047603490384688
mp-667363,AlPO4,0.01248749368055968
mp-862586,Re3Pd,0.0
mp-1098371,HfMg30TiO32,0.0939927875976565
mvc-9136,VZnBiO5,0.023088531249999992
mp-554558,Gd2(MoO4)3,0.0
mp-1061028,SrS,5.583499999950448e-05
mp-754093,Gd2CdO4,0.08150087142857032
mp-567596,In6Se7,0.04277957089743545
mp-868139,Li4Mn2Nb3Cr3O16,0.09162308343749004
mp-761913,Li7V3P8O29,0.01707831697694306
mp-764008,VOF2,0.06481819171875536
mp-763819,Li4Mn7(OF7)2,0.07636128370370178
mp-772685,CrPO5,0.08766620839284034
mp-1032908,CaYMg6O8,0.1872135215625006
mp-20496,Ga2PbO4,0.0
mp-1079393,Co3Si,0.07706628312500019
mp-743915,VPH6C2N3O7,0.09822129046658112
mp-566151,Pb3WCl2O5,0.0
mp-13252,SnB4O7,0.0
mp-573568,K2TcI6,0.0
mp-1035536,LiMg14SiO16,0.1158804475195323
mp-1027947,YMg14C,0.3202910660624969
mp-569655,BN,0.3244290625000321
mp-541849,Al3(BRu2)2,0.0
mp-764186,Mn6O5F7,0.05685526756945691
mp-765046,Li4V2OF7,0.056953470942468165
mp-867626,Tl3Os3O10,0.0
mp-1096708,NaAgPd2,1.731247198125
mp-865864,Tm(Al2Cu)4,0.0
mp-1025041,ThB2Pd2C,0.10176378569444378
mp-1030578,TeMoWSe2S,0.042628521666665975
mp-555843,Ag3AsS3,0.023582593571427786
mp-774951,Li2MnCr3O8,0.0
mp-566764,Tl3(MoO3)10,0.015370484460122569
mp-1076992,UIrPt4,0.17171595208333734
mp-769748,Li4Ni5BiO12,0.06386188352273336
mvc-2391,Ca2Ta2TiO8,0.1536885064478053
mp-705379,Li5Co9(P2O7)8,0.053811261569769016
mp-998602,RbOsO3,0.0
mp-16830,Sr(Ni2B)6,0.0
mp-779831,Li3V(BO3)2,0.061926215833334027
mp-996948,CaCr2O4,0.3236737937500074
mp-774832,Ba10Li2Bi4O21,0.0
mp-556372,CaSO4,0.0027835827777753512
mp-669473,Cs3Sb2Cl9,0.005835735357142546
mp-865004,Dy2ZnOs,0.0
mp-973769,Hf6Al16Os7,0.007582878793102488
mvc-260,Sr2YTiCu2O7,0.10163868634615536
mp-570690,SiC,0.03150131750000007
mp-571056,CsSn,0.0
mp-763991,MnOF,0.039786021666670564
mp-754937,LiTi3O6,0.02964549874998568
mp-775649,Fe2Sn(PO4)3,0.07495108666667782
mp-16996,Li3GaSiO5,0.0
mp-763332,Li3MnF5,0.08189767555555427
mp-774567,Er2TiO5,0.0
mp-779407,Li6MnV3(PO4)6,0.05623528212501317
mp-562815,Cs4CO4,0.2450910155555581
mp-10676,Sc2AlSi2,0.0
mp-540208,Cr3(P2O7)2,0.0792388952579195
mp-1079294,TmCuSb2,0.0
mp-8,Re,0.0
mvc-874,Zn(Fe2O3)2,0.11065095500000056
mp-764889,Li9Fe5O12,0.06778482230769
mp-12083,CrIr3,0.0
mp-574909,K2NbS7,0.0010210863958368677
mp-764986,Li4Ni3O6F,0.07186635607143099
mp-1095573,NbCoSi,0.0
mp-8708,Mg(AuF4)2,0.0
mp-979431,YLuZn2,0.002890319999999669
mp-554249,Bi6Cl3O7F,0.0
mp-1023394,Mg6AlV,0.1894183606250004
mp-764177,Mn6O5F7,0.0728411731250116
mp-1063224,HoHg2,0.054894896666666686
mp-568522,In3SnI5,0.0
mp-1037659,RbYMg30O32,0.10560235718750023
mp-30580,SrGaCu2,0.0
mvc-3741,ZnCoF5,0.015012181428586404
mp-866664,K8Zr6BBr20,0.0
mp-765317,LiVFeP2(HO5)2,0.0075214877352953735
mp-706490,Mo9O26,0.002335398535715072
mp-764592,LiFe2OF3,0.08682806071428573
mp-776921,Ti3CrFe2(PO4)6,0.014185594143510729
mp-624009,Fe2TeWC10SeO10,0.5813355639999997
mp-5024,ZrP2O7,0.0
mp-21136,Ce3Ni2B2N3,0.0
mp-570311,K4Sr2SnAs4,0.0
mp-771071,Li2FeBO4,0.031027144062494294
mp-14531,NaNb3O8,0.02317863958333
mp-865145,NaTl2Bi,0.0
mp-554286,La6Ti2S8O5,0.0
mp-758504,K2Mg3P4(H5O6)4,0.01319633311320878
mp-768939,Sn2(SO4)3,0.01169969691175421
mp-978538,SmSnPd2,0.0017091867187506438
mp-2626,Zr3Rh5,0.0
mp-850235,Mn8O13F3,0.06682868817708787
mp-866819,Ca2SnS4,0.3579240524999987
mp-764665,Li5Fe8(BO3)8,0.04478888248611401
mp-644504,NdMg2Ag,0.08522226125000021
mp-2754,Hf2Fe,0.0
mp-1095026,DyAgSe2,0.016903825625002256
mp-24585,LiZnPH2O5,0.021657581875001768
mp-863665,Pm2CuIr,0.0
mp-20939,PrPb3,0.0
mp-675926,LiBH4,0.0714630316666649
mp-1094649,Mg2Ga,0.06939654305555233
mp-12434,Ho2InGe2,0.012943354666667515
mp-30565,Th7Co3,0.0
mp-568629,YbAg,0.0
mp-1017080,CsMg6Cr,0.4736342687500002
mp-6297,CaCu(GeO3)2,0.0576545106000177
mp-565443,Ba4PrMn3O12,0.02332851987502771
mp-650328,NbTe4,0.0
mp-757002,KZrPCO7,0.03182699181818372
mp-1084826,Nd2Co3,0.0
mp-560196,Al(HO)3,0.030256443214286218
mp-779056,Li2FeP2O7,0.007737688611116234
mp-1078832,ZrGaNi,0.0
mvc-10247,HoZn(NiO3)2,0.11548651856249935
mp-15220,K2VCuSe4,0.0
mp-705405,Cr6P7O24,0.020479768975210533
mp-1096268,Ca2InGa,1.8163084512500005
mp-672240,TbNi,0.004557237916666956
mp-974420,Re3Mo,0.1278132006250008
mp-1087473,LuZnPd,0.0
mp-768193,Li2SmPCO7,0.09228879083333208
mp-1080653,FeNiP,0.01626598347222341
mp-1018735,BaTi2As2O,0.0
mp-16377,Ho(SiPt)2,0.0
mp-22538,Li8PbO6,0.0009493466666654627
mvc-12117,Mg(CoO2)2,0.08421448392857123
mp-556757,K2NaNiF6,0.004761665000001969
mp-504559,Pr2W2O9,0.0
mp-625184,Sr(HO)2,0.0018900024999961573
mp-708964,Al2P2H8C2NO8F,0.04957848135416842
mp-862733,Pm2ZnSi,0.0
mp-1026899,Mg14CuW,0.1866236778125004
mp-600031,SiO2,0.012517309583328641
mp-619461,WO3,3.689687499885963e-05
mp-643356,SrH2Br2O,0.005083455416667881
mp-1037254,YMg30CrO32,0.0687282669531255
mp-1025424,TmMnSi2,0.19897346437499847
mp-542448,Cs3GaSe3,0.0
mp-561307,DySCl,0.0
mp-571595,CdI2,0.0006153528888890314
mp-19922,LuNiGe,0.0
mp-850157,LiMn(PO3)4,0.06371817166666993
mp-1077693,K5Na3Nb4(WO5)4,0.25248598451388826
mp-29690,Tl2Te2O5,0.0
mp-1028604,TeWS,0.0971062512499996
mp-32524,V3(P3O10)2,0.02157189051728281
mp-776063,Li2MnPO4F,0.027314807499999816
mp-773326,Li2FeNiO4,0.08412666468750007
mp-1025084,HoBC,0.4220636328124927
mp-1096150,ScBe2Pt,2.9946181384999995
mp-980659,Tl3BiCl6,0.0
mp-27401,NaIO4,0.0052962660416691065
mvc-15435,ZnCr2O5,0.27683746591146097
mp-763790,Mn(PO3)3,0.06714289269229567
mp-32029,Li3Mn3(PO4)4,0.0009469443269241039