mpid,formula,e_hull
mp-623382,BaFe2(P2O7)2,0.0
mp-773145,Li2Cr4O13,0.04357346182017796
mp-865623,Lu2IrRh,0.0
mp-22037,Cu6PbO8,0.2554884453333299
mp-629690,Bi2(PbS2)3,0.0004722656818181292
mp-6977,Be3N2,0.029436970250000805
mp-22769,TiCoGe,0.0
mp-1075610,Mg5Si9,0.2784109570634903
mp-570798,Er3(P3Pd10)2,0.0
mp-762968,Li5V3P8O29,0.036150820574059495
mp-762860,LiCoSiO4,0.09653934814284426
mp-1025567,NbCl2O,0.0
mp-772186,Tm(ClO4)3,0.0
mvc-10399,HoZn(WO3)2,0.19555752387500114
mp-775959,LiLa7(CuO7)2,0.03618909249999902
mp-3507,Lu(SiPd)2,0.0
mp-1040138,LiMg30SiO32,0.06321661000976686
mp-1078913,Rb3CeF6,0.004370702166666796
mp-25420,LiTiPO4F,0.055920448797613716
mp-19045,Ba2MnZn2(AsO)2,0.0
mp-1695,Y2C3,0.043170362499999726
mp-31739,Li2CrP4O13,0.04300769134375315
mp-626864,U(HO2)2,0.07837360964285889
mp-568671,V5Si3,0.0
mp-569406,TmZn2,0.0
mvc-15937,AlSnO3,0.6583533932499943
mp-11116,CsYCdSe3,0.0
mp-22401,Nd2Re3Si5,0.0
mp-777292,Ba3Y2Br12,0.06679659845588226
mp-674508,RbPbF3,0.0
mp-770878,Li4Cr3Co5O16,0.11885019005952292
mp-1095110,Ba2SmMoO6,0.0
mp-570964,ZnI2,0.13970724312499996
mp-1079486,Ru(IN3)2,2.3217453255822225
mp-31660,LiCrP2O7,0.0395758129545456
mp-780021,Mn6O7F5,0.06955534104168226
mp-19249,YbNiO3,0.0
mp-773964,Ba10LiW7O30,0.06313807716146869
mp-1075001,Mg3Si4,0.1798339397619042
mp-3180,Ta2Te2O9,0.0
mp-769144,SnGeO3,0.0
mp-505627,Nb3Co2Si,0.04231738809523655
mp-19622,Ba3MnSb2O9,0.0
mp-561262,NaSrCrF6,0.0
mp-1094100,Nb4CoS8,0.0
mp-1074396,Mg4Si3,0.2501341923015889
mvc-12565,Mg(CoO2)4,0.1107384865384624
mp-568889,Ag2Se,0.1293268749999994
mp-542794,Fe7S8,0.1325477839999989
mp-559637,Dy(IO3)3,0.0
mp-8603,RbAgO,0.0
mp-636056,KN3,1.0568781212500005
mp-1095766,SrMgCd2,1.2454940492241384
mp-758597,K2TiSi3(HO5)2,0.0
mp-765742,Na3V5O10,0.03181025347221045
mp-557837,SiO2,0.006172022499999486
mp-552098,Bi2SeO2,0.0
mp-722275,CuH20S2(NO7)2,0.008850154147357792
mp-556018,LiBH15C5NO3,0.3112530114903853
mp-1094022,Zn(GaS2)2,0.2807200664285689
mp-504934,Sc2CI3,0.0
mp-849475,VO2F,0.03347103937500151
mp-11629,Tb2Al6Si4Au,0.002590599230768653
mp-721314,NaH2SO4,0.03298612722826544
mp-28505,Ba(AlTe2)2,0.0
mp-1099827,Sr3Ca5FeCo7O24,0.09321085178570776
mvc-12056,Sr9Zn3(CuO7)2,0.11036501553572807
mp-243,KC,0.2651140093750017
mvc-14557,Ca2MnN2,0.058553262000000224
mvc-8335,MgCo(GeO3)2,0.006130275500037641
mp-1070146,DySi3Ir,0.0
mp-867561,Li2Cu2F7,0.06731711227272719
mp-1008625,W2C,0.1375365500000001
mp-7477,RbErO2,0.0
mp-637436,Tm10In20Co9,0.010957645341880706
mp-1097440,CaScRh2,2.2844089091666664
mp-1078247,Cr2FeS4,0.08619079214285907
mp-556989,ZnS,0.00090590916666633
mp-1078755,SbPt3,0.03323690437500382
mp-1079538,V2H2O5,0.03279449027779702
mvc-4007,Zn2Mo2O5,0.4359826805555569
mp-19000,VPO5,0.015059022142894563
mp-31713,Li5Cr2P5O18,0.034626305666644264
mp-973835,PdN,0.8620157438099989
mp-555580,SrZr4(PO4)6,0.0
mp-684090,LiSbP2O7,0.04299523348484868
mp-19695,LiGa(WO4)2,0.02180646604166548
mp-763127,FeOF,0.06773334055555402
mp-1094743,MgZr,0.09058601
mp-557246,K2Be(CO2)4,0.042109052041667816
mp-1105,BaO2,0.0
mp-1029978,KRuN2,0.21808798833333398
mp-567072,NaV6O11,0.018947006597256788
mp-863862,Na9Cr2(H9O7)3,0.014974683601693071
mp-865865,Yb(ErS2)2,0.0
mp-776939,LiVF4,0.015212192500009712
mp-8361,CsTe,0.0
mp-777908,Li2FeBO4,0.08666360531249406
mp-643062,H4IN,0.0
mp-566188,Ba4CeMn3O12,0.0
mp-1080202,FeN2,0.14281862420666513
mvc-8854,TiZnAg(PO4)3,0.10332424530092599
mp-7166,Pr3TlC,1.814385559
mp-560711,Sm10S14O,0.008010291399999758
mp-779192,LiCoSiO4,0.08434078671427159
mp-772600,Cd(FeO2)2,0.06904796821428594
mp-20774,NdCuSn,0.0
mp-1028353,CsMg14Ni,0.2484952737499999
mp-1096783,Ba2VFeO6,0.12441787749999733
mp-6145,Ba2LuRuO6,0.0
mp-23650,TeSeS(NCl)2,0.1988278658474236
mp-557302,S2NO,0.1629887954049991
mp-744264,CrH15S2O15,0.0
mp-1016223,Mg3Mo,0.3441566050000002
mp-557792,HfSCl6O,0.0
mp-981380,Tl3Zn,0.13847813749999993
mp-1038575,Mg30NbCO32,0.1759167689544272
mp-24574,NdH5(SeO4)2,0.0
mp-29087,Ba2(SnSb2)3,0.0
mp-19240,ErCrO4,0.0
mp-22490,Sc3(NiGe)4,0.0
mvc-16231,AlFeF5,0.00828362571428798
mp-20333,PrMnSi,0.009754060000000564
mvc-8767,Co(Si2O5)2,0.14014265316666474
mp-5083,Er(CuGe)2,0.0
mp-977368,K2Dy4Cu4Se9,0.0
mp-775640,Li4Ni5Te(PO4)6,0.09531421140624463
mp-720217,K3Ca2Mg10Si16(HO12)4,0.5003207887976906
mp-991428,GaFeCo2,0.0
mp-13939,Sr2ErReO6,0.06605237487499771
mp-505186,Cs4Pr6C2I13,0.0
mp-759602,Sb4O5F2,0.04281217170454621
mp-555700,SiO2,0.008578859583334264
mp-1035899,YMg14NbO16,0.21337287728515708
mp-643203,Cu6PbSe2Cl5O8,0.0
mp-714965,CoO2,0.031195422499999736
mp-570001,Al6Fe,0.0
mp-980054,YbPbAu2,0.0
mp-3046,Yb3Sn13Rh4,0.0
mp-12524,Al2W,0.09563216611110904
mp-769032,Li3NbS4,0.0
mp-972763,Si3Pt,0.26838596624999944
mp-991049,LaCd,0.004188909999999879
mp-865889,YbBe13,0.0
mp-769931,Tm3TaO7,0.010881706022727757
mp-1029407,NaCrN2,0.0
mp-767469,Ni9S10,0.08912120039473947
mp-765329,LiVF5,0.049960724107148025
mp-978,Sr2Sn,0.0
mp-762892,LiCoSiO4,0.08328542314284347
mp-1079471,TmZnPd,0.0
mp-643385,SrHIO,0.0
mp-625405,V2H3O5,0.009262372249999372
mp-774726,Cu2H26C6S7N12O5,0.035155602925900815
mp-1027133,Te4Mo3W(SeS)2,0.09438765833333383
mp-18717,SrVO3,0.035754377654409815
mp-850747,LiFe2P2HO8,0.06445333303571578
mp-775086,Li3SiNiO5,0.08201956624999962
mp-39712,NaCaTaTiO6,0.013961138624999592
mp-20263,CaIn,0.0
mp-6413,LiDy(PO3)4,0.0028458114351748165
mp-1098702,CeSe2,0.08840554291666791
mp-642019,NdInPd,0.2527029855555547
mp-1019576,Ca4SiN4,0.0
mp-565368,Na2CrCoF7,0.000573394204542943
mp-1028234,Mg14AlSn,0.04072827240384624
mp-1078544,Sc2InCu2,0.0
mp-698101,U(HO)8,0.0023674305147061148
mp-978908,TbTmRh2,0.012482857500000222
mp-1098875,BaMg30CuO32,0.08731811617187546
mp-1038690,BaMg30CrO32,0.08805018248698017
mp-17774,K2Li3GaO4,0.0
mp-705037,Na4VP2O9,0.0
mp-765445,Li2VF4,0.06209753499999859
mp-3158,Li2SbPt,0.0
mp-565203,Mn2O3,0.0
mp-23957,SrH2I2O7,0.014897533333333438
mp-1019609,Cs2Sr2Li3B3(PO4)6,0.0
mp-675479,PuPaO4,0.0
mp-1079681,ZrAu3,0.0
mp-765358,Li3VOF5,0.030582595023820325
mp-1854,EuPd2,0.0
mp-559455,C2SNCl2F5,0.09815582170975824
mp-569070,InSi2P(H3C)8,0.06638212592592563
mp-704731,KMnO4,0.024034627656250862
mp-849472,Li5Co7O3F13,0.0466931969642852
mp-762232,LiCoSiO4,0.08977083421427245
mp-676580,Ba11(Nb3S14)2,0.0035283351111123906
mvc-3226,Mg2Mo3O8,0.0514749580769216
mp-1087487,Hf6Ga2Fe,0.0
mp-770335,Li3VBO5,0.09228063400000597
mp-34175,Ce2CdSe4,0.10425597428571542
mp-17008,CaTeO3,0.012962544533332121
mp-705470,Li3Mo4P5O24,0.019552472652756947
mp-1076505,Sr3CaTiMn3O10,0.04972726159721663
mp-1096318,LiScZn2,1.7957936625
mvc-10442,Zn(CoO2)4,0.252444500153846
mp-568948,UTe3,0.0
mp-705857,MgV3O8,0.006158636041655896
mp-754263,Ho2CuO4,0.0284172132142988
mp-706336,Na4Be2Si6Sn(HO5)4,0.0
mp-1017418,CsMg6Si,0.2965464388749999
mvc-6893,VZn(SiO3)2,0.08824198999999933
mp-669402,Lu2Si5Ru3,0.0
mp-1036614,Mg14AlZnO16,0.10395770093750034
mp-1025257,TmGa5Co,0.0
mp-9522,K(ThSe3)2,0.0
mp-29168,Rb3BiSe3,0.0
mp-567826,Sr,0.14409870000000002
mp-722378,CaZnP2H5O8,0.21921581415441604
mp-761338,LiVPO4,0.009636220735926848
mp-860791,AgSbO3,0.04385974533333314
mp-14092,AlAgTe2,0.0
mp-19799,BaPbF6,0.0
mp-1094571,MgSb,0.11863172749999995
mp-1019592,Ce2B8O15,0.019255359733337585
mp-762595,Li2Fe3CoO8,0.16643158100446254
mp-771611,Li5V4O8,0.05076247960784297
mp-769575,Li6Co5(P2O7)4,0.014742982092192491
mp-600433,FeHC2O3,0.14844509035714193
mp-775216,LiVTeO5,0.09157427453122667
mp-774623,Li4Sn(PO4)2,0.05555405577778138
mp-9929,ZrCuSiAs,0.0
mp-720407,KH(IO3)2,0.0
mp-27229,Sb6S2O15,0.0
mp-37091,Sr(AlTe2)2,0.0
mp-7030,LaSiNi,0.0
mp-770629,Li2AlFeO4,0.026083039062499758
mp-775365,Al6H16C5(Cl2O)6,0.07220240369444397
mp-1093657,ScBePt2,2.306637182
mp-18511,NdF3,0.0012022262500002154
mp-714932,V5O9,0.023066783750005367
mp-9425,Sr2GaCuSO3,0.04060157945312515
mvc-10862,Ti(BiO3)2,0.3059858258333339
mp-19101,BaEr2NiO5,0.0
mp-1024050,Na2Zn3Se4,0.06703742986111072
mp-4341,Pr(P3Ru)4,0.0
mp-8670,Ca3CrN3,0.0
mp-1096396,Hf2BeRe,4.154201411374999
mp-650926,Na3Li3Fe2F12,0.0
mp-11194,NdMgNi4,0.0
mp-561414,K3Hg3S2Br5O6,0.047480230263157175
mp-12985,PrCo2B2C,0.059729324999995725
mp-667356,PRuC4(OF)3,0.35518060698611104
mp-557936,Zn4Cu5(TeO6)3,0.030853728472222564
mp-764338,FePO4,0.00016019208333339918
mp-775472,Cr3Co(PO4)4,0.0509321587500029
mp-781739,LiV8F33,0.03453834119047894
mp-776084,BaSiO3,0.0
mp-27570,CsFeCl4,0.0
mp-7149,Na2LiN,0.20080529250000054
mp-8754,NaLiTe,0.0
mp-6055,Sm2SiTeO4,0.0
mp-774994,Li5Fe8(BO3)8,0.0461036531527812
mp-541106,Nb2Se9,0.0
mp-763878,LiMn2O2F3,0.05459500656250072
mp-998627,NaMoO3,0.10278251199998856
mp-11736,ZrSiO4,0.0797304091666664
mp-505397,K2PuCl6,0.0
mp-1036997,Mg30VFeO32,0.028587311679687318
mp-866076,NdAu3,0.0
mp-568498,Sm2(CN2)3,0.0
mp-540140,Li3Mo2(PO4)3,0.009042120500000195
mp-1953,TiAl,0.0
mp-25044,LiMnAsO4,0.0
mp-767992,LiNi2O3,0.0
mp-540721,NaB5H10O13,0.002025151810343573
mp-21963,YTl5Cu2(NO2)12,0.17771372205464694
mp-644265,CdH2(CO2)2,0.143547558611111
mp-771989,Mn3NbO8,0.08406282908853946
mp-531611,Mg(AlB14)2,0.0
mvc-9684,Ba2AlNi2F11,0.036886357968726635
mp-781684,LiNiH12(SO7)2,0.05388959867361187
mp-1093724,MnSiOs2,3.899108533611111
mp-763601,LiV2(CO3)4,0.0510365968421187
mp-853156,V4(OF3)3,0.007616322187506519
mp-770588,Li2FeH4(SO5)2,0.04805723907894244
mp-768400,Li8FeS6,0.10253670933333403
mp-1074917,Mg7Si4,0.2505595940404044
mp-540789,PbI2,0.002738644999999984
mp-1006164,PmPu3,0.3010216754687498
mp-1001925,LaC,0.7050091445833333
mp-779371,Li3MnV(PO4)3,0.0513792798124646
mp-556118,BaHgO2,0.07393373624999988
mp-690488,Co2TcO4,0.04517622285714396
mp-768613,Zr(MnSn)6,0.0
mp-771448,Na3SiNiCO7,0.032529640080131365
mp-13024,AlPO4,0.10640319416667143
mp-767670,Li4Mn3(FeO5)2,0.059162094736857185
mp-733455,Li3H6Rh,0.0
mp-759344,P3H30N7O12,0.0
mp-755770,Ba2LaI7,0.06415822075000001
mp-554873,Ag2B8O13,0.0
mp-767878,Li3FePCO7,0.051678374423076434
mp-768973,Ba2YCl7,0.07909500049999972
mp-704623,Nd7V(Se2O)4,0.01869677993750064
mp-981378,Sr3Yb,0.02635902250000011
mp-672257,Tm2Ga8Fe,0.005395757585225702
mp-630528,InS,0.02805402125
mp-32115,MoP4O13,0.06484414833333574
mp-1032625,Mg6ZnFeO8,0.0777418856250005
mp-715333,Fe7O8,0.03316537533333985
mp-780229,Na6Bi2B4PO16,0.04566536288792822
mp-1099315,RbMg6Ti,0.3748315391666661
mp-1098807,SrMg30FeO32,0.038023914114583945
mp-1026452,HfMg14W,0.23165830296875
mp-1021351,Mg6TiW,0.3299775729166665
mvc-12466,TiO2,0.15088674708334793
mp-10048,GaAs,0.4175267550000004
mp-758497,LiCuPO4,0.07926900500001377
mp-27440,ZrCl,0.0
mp-631474,BiSb2Os,0.7994102900000009
mp-776527,Li2MnPHO5,0.06339797362500299
mvc-9413,Ba2YSn2F11,0.07479767343750154
mp-849083,Cr2S3,0.0023927400000012256
mp-41236,Ba2La2Zn(WO6)2,0.10767743013158616
mp-1097550,HfTiBe2,3.7431120725000007
mp-639511,SiO2,0.01172204614583272
mp-705892,K2B10H9O,0.3647669447727289
mp-18735,Ba2Co(BO2)6,0.01482902456352164
mp-765305,LiVCrP2(O4F)2,0.007710309138898808
mp-504422,H7NO6,0.006402178750001042
mp-778754,Li8MnFe7(BO3)8,0.0007397223263918562
mp-170,HoCd,0.0
mp-1096880,CaZnPb,0.011668566363636224
mp-1009654,CaGe2,0.024757989999999445
mp-684502,Sn2P3O10,0.12764754304166015
mp-1095204,Tm2Ni2Sn,0.0
mp-1080605,MgGaAu,0.0
mp-19166,Sr3NiPtO6,0.0
mp-574580,Tl4Pd3Cl10,0.017090975343135195
mp-1001080,H2CO3,0.003972218333338161
mp-18855,Co2Te3O8,0.0
mp-629088,Eu2GeSe4,0.041169115624999364
mp-20,Be,0.1081427774999999
mvc-7317,Mg(SbO2)2,0.10412753357142712
mvc-11007,CaFeMoO6,0.19162037909722152
mp-984717,BeNi3,0.08878449499999963
mp-23806,BaAsH3O5,0.006700025062492898
mp-753903,Bi2B2O7,0.08095282678028948
mp-22513,Dy3TlC,1.917483589999998
mp-636289,WO3,0.0009286268749981732
mp-542867,YMn2O5,0.0
mp-5091,Dy(Al2Fe)4,0.0
mp-20932,NbNiP,0.0
mp-767606,Na2NdPCO7,0.02899646854165549
mp-556269,S,0.03736194135416682
mp-554359,Cs2Si3SnO9,0.0
mp-1096647,Be2IrOs,3.9291580687500014
mp-697850,Li2Cr(PO3)4,0.025430969269630843
mp-1031682,Mg6VSiO8,0.3335907166105754
mp-1030418,Te2Mo3W(SeS2)2,0.053630383333333136
mp-28985,SbSeCl9,0.0
mp-38280,LiTiO2,0.0
mp-760510,Sr2Bi2O5,0.0006176463888891702
mp-1080266,CeSe2,0.5264476645833343
mp-30834,SrSn3Pd,0.0
mp-1072501,DySnAu,0.0987438616666676
mp-764761,Li2VOF4,0.018773385342274903
mp-770057,LiMnV(PO4)3,0.04760191805555269
mp-29251,Te6Br2O11,0.0
mp-1095357,BaIn9Ir2,0.011059169880953236
mp-516,LuSb,0.0
mp-989616,CaWN3,0.0
mp-1078441,Ba2UCu2Se5,0.0
mp-679406,K2HS2NO6,0.06719110555593044
mp-754021,BaYBr5,0.06213737410714515
mp-12843,YCuS2,2.1293749995265895e-05
mp-1094163,LaMg2,0.1176160150000003
mp-21038,Dy3Mn3Ga2Si,0.1210452815079366
mp-863676,Pm2CuSn,0.0
mp-779332,B2TeO6,0.0804591851851848
mp-17033,CsAlPdF6,0.017664808611110416
mp-1025079,EuAsPd,0.0
mp-1095675,CeAsS,0.012616446666666723
mvc-5984,Mg(AgO2)2,0.10377977779761947
mp-561020,NbP4(SCl)5,0.005394057677083453
mp-853179,Ti3VFe2(PO4)6,0.01662281701388757
mp-754567,NaCdO2,0.020767791666666646
mvc-2220,P4WO12,0.025829942941162358
mvc-7691,Zn2Sb3O8,0.2430408232211532
mp-1032624,Mg6FeCuO8,0.05438435124999952
mp-1035796,Mg14FeCuO16,0.03345993125000035
mp-21340,HfGePt,0.0
mvc-852,Co2O3,0.2767384807499997
mp-554961,ZnS,0.0003767066071427294
mp-984721,BeGaCo2,0.0171604874999991
mp-557726,Gd2Au5F21,0.0
mp-1099224,CsMg6WO8,0.7548049895312507
mp-764422,Na2(NiO2)7,0.016101446974636783
mvc-6765,Mg(CuO2)2,0.1562682796428554
mvc-10776,CaTi2Be3(SiO4)3,0.15605331632652766
mp-559117,KLiMnO2,0.0066130510000030895
mp-652353,PC2S2N3,0.12003012013904613
mp-764418,Na3Fe5O8,0.1168089045312506
mp-683936,Ba4LaGe3SbSe13,0.0
mp-764924,Mn6OF11,0.034715723958337996
mp-3444,ErTaO4,0.0
mp-1097431,ScHgPd2,1.6726609312500005
mp-1099945,KNaW2O5,0.29005719548611264
mp-1021298,KMg6Cd,0.17748941250000014
mp-864660,HoSbRh2,0.0
mp-1035680,KMg14BO15,0.26442141741935643
mp-1034035,Mg14TiCdO16,0.1487810619531258
mvc-10835,Sr2YBi2O7,0.2690929913541797
mp-1094574,LiMg2,0.039481504999998585
mp-32633,Dy6Se11,0.0
mp-13500,Sm3Si2BO10,0.0
mp-617233,Rb2Cr4O13,0.02535751549342269
mp-752449,La2B4O9,0.008082099866664194
mp-1094523,YMg,0.12783990249999988
mp-756656,Gd3InO6,0.05384752875000132
mp-777510,Fe10O11F9,0.07393089089582894
mp-775829,Ti2N2O,0.05685655676200161
mp-510209,Sc5Pb3,0.0
mp-765123,LiVCrP2(HO5)2,0.0014226170588225169
mp-853263,Li5V4(PO4)6,0.008111797051311598
mvc-9680,PrZn(WO3)2,0.18426396450000126
mp-626577,Mo(HO2)2,0.03228921839285537
mp-1034077,RbMg14CO16,0.4482155405273423
mp-30807,ZrNi4Sn,0.03358868213541655
mp-24928,K2Cr2Cd(H2O5)2,0.0
mp-518,Ti5Re24,0.0
mp-1097263,Cs2RbNa,0.4974592296875
mvc-6812,YCr3F15,0.2346989906578951
mp-773601,Li2CuP3H8O13,0.08112123023149652
mp-6224,LiScSiO4,0.0
mp-6169,Ba3Ta6(Si2O13)2,0.0
mp-1022026,BaMg6Ni,0.19245271200892766
mp-585483,SiMoP3O11,0.0
mp-865526,TmSb(PbO3)2,0.0
mp-1026860,RbLiMg14,0.13829550874999996
mp-1738,SmAs,0.0
mp-778246,Li2Mn2(PO4)3,0.03582040362939054
mp-1077089,CdClO,0.3532204163333237
mp-11428,GdPt,0.0
mp-12067,MnAl,0.046162674999999716
mp-562157,Rb2PbO3,0.0
mp-556705,AsS(ClF2)3,0.0
mp-585424,LiCrPO4,0.025841929166669608
mp-34460,Ag3AuS2,0.0
mp-675124,In4SnS8,0.02035151365384636
mp-984555,CsDyS2,0.0
mp-865841,YbPaPt2,0.0
mp-23264,TiI3,0.0
mp-30843,Sr7Pt3,0.0
mp-1067398,CrH,0.3893537774999993
mp-972175,Zn3In,0.1101278012500002
mp-510582,NdNiSnH2,0.0
mvc-349,Sr2YAlNi2O7,0.05161128636217782
mp-704225,Mo2P3O13,0.0007999105555587249
mp-680493,K3Co(CN)6,0.0782672102734372
mp-26477,LiCuPO4,0.0427080453571449
mp-779502,Na3CuO2,0.016019961666664532
mvc-15986,Ca2Co3O8,0.0
mp-765898,Li3TiMn3O8,0.06624621260417117
mp-697126,Ca4(H4Rh)3,0.0
mp-556238,CuC3(OF)3,0.15297298306249996
mp-983327,KH4O2F,0.003529328749999117
mp-504598,Rb2PbO2,0.0
mp-850275,Li3SbS4,0.07149041437499992
mp-973783,H2,4.440892098500626e-16
mp-763897,Li6CoOF6,0.0362278296428622
mp-643036,BaHBrO,0.0
mvc-1136,CaCoO2,0.10709454500000072
mp-23158,He,0.0
mp-6528,Cs2NaAlF6,0.0
mvc-12581,MgCr4O8,0.11901446076921295
mp-1095802,MgMnPd2,2.1126757290000002
mp-3513,Dy2Al3Si2,0.0
mp-1080518,HfSnRh,0.011460314999999888
mp-723540,K6BiH3(Cl2F)4,0.0
mp-677526,Rb2SeO4,0.016104846428573794
mp-676398,Rb2CrCl4,0.0035252064285726803
mp-761357,Li3V(PO4)2,0.07997218107143844
mp-768139,Li8Sb2S,0.07698961909090896
mp-19915,Sr4In2N,0.0
mp-698491,NaCa2Al4H8C4ClO20,0.0
mp-570453,Ba4W(N2Cl)2,0.0
mvc-10714,Zn(BiO2)4,0.15511858076923435
mp-22705,BaPrO3,0.10102851724999964
mp-18935,K2V(PO4)2,0.007436102307699421
mp-1095406,Ba3(LiSb)4,0.0
mp-1020650,Sr3Ge2(B3O8)2,0.0
mp-1036646,Mg14AlSnO16,0.20090703421875045
mp-532524,TiZn2O4,0.0369067851190481
mp-1079037,LaSi2Ni,0.0
mp-975655,PrNiGe2,0.0
mp-8610,Li8PtO6,0.0
mvc-11476,Mg(VS2)4,0.05656778499999681
mp-541416,SrMo3(PO7)2,0.003027445500002557
mp-1017542,ZrOs3,0.2895058093750009
mp-541049,Sr7Nb6O21,0.0018719778431606207
mp-767230,LiMn2(PO4)2,0.005526916730770104
mp-973834,PdAu3,0.0
mp-767669,Li3Mn3(FeO5)2,0.07950548819443881
mp-29244,Cd2P3I,0.01762836401388901
mp-17486,Ho3CuSiS7,0.0
mp-1034167,RbMg14WO16,0.25532119617187465
mp-1097527,Hf2FeRe,4.2122292406250015
mp-567484,PtCl2,0.04472348277777982
mp-707986,K2Pr2H3(S2O9)2,0.03888093778017243
mp-764824,Li5Fe8(BO3)8,0.0458093607083363
mp-683666,Cu2WO4,0.2776270232142837
mp-769274,LiCuPO4,0.0696515946428704
mp-752422,IClO,0.061875888499999476
mp-28938,Nb3TeCl7,0.0
mp-1080333,CeSe2,0.5502133741666677
mp-758251,Li5AgF8,0.037173965714283774
mp-625316,Al(HO)3,0.0392823739285717
mp-677067,Ca3Al4Si8(ClO12)2,0.13204185286585268
mp-662643,P2CN3Cl5,0.04852427089712297
mp-1002104,LaPt,0.0
mp-864620,CaSmCd2,0.0
mp-767467,Li7Y7Zr9S32,0.00040121454545261065
mp-9839,K2LiAlF6,0.0015046900000008634
mp-10638,ZrSb,0.007622544166666856
mp-20121,UFeSi,0.0
mp-624689,V2O5,0.14711637571428504
mp-1094370,Mg2Ti,0.2047448019444431
mp-778625,LiCr2P5O16,0.07447171614583414
mp-768893,Mg2(TeO3)3,0.05283434229166595
mp-1029243,TeMoWSe3,0.022674481666667745
mp-851277,Li4Fe2(PO4)3,0.04461242160711354
mp-568354,DyGa2Cu3,0.014533068333333787
mp-776910,Li3V3(CoO6)2,0.05080506692501263
mp-766313,BaCa2I6,0.0627476027314815
mp-25154,V(PO3)3,0.0
mp-643071,Yb4Mg4Fe3H22,0.0
mp-675402,CuAgO2,0.2367821675000004
mp-754674,Lu(CuO2)2,0.0
mp-11984,YMgTl,0.0
mp-696806,BaH4(BrO)2,0.010062697638888451
mp-19175,MnSe2O5,0.0061013906249973715
mp-715448,CoO,0.006644137499999482
mp-1028076,Mg14MnC,0.3349557626698369
mp-1031634,Mg6VCrO8,0.08287457187499925
mp-1026790,LiMg14Bi,0.06405177250000005
mp-999461,NaPrSe2,0.0
mp-780531,Na3Mn3O8,0.013135176473215715
mp-1008554,Al3V,0.14161957750000198
mp-1097573,NaTl2Pt,1.0679302525
mp-622613,Rb2FeC5N6O,0.4949741813222239
mp-1078362,Ca2AlPt2,0.0
mp-962068,CaMgSn,0.2587766058333347
mp-770593,LiCo2(SO4)3,0.005444855868064202
mp-865783,YbHoRh2,0.0
mp-1076197,Sr2Ca2Mn3FeO10,0.05350364562502996
mp-2840,PuIr2,0.19839223633333347
mp-20709,Ba2ScSbO6,2.196425028937507
mp-761389,Li6VSb3(PO4)6,0.08749024212499279
mp-705586,SrLa9Mg2Ga6(FeO14)2,0.10741814684892592
mp-31442,Li2InRh,0.0
mp-755046,Ce3Y4O12,0.06737554947368274
mp-1472,ZrB2,0.0
mp-676723,Li2SO4,0.10766641785713917
mp-733822,ScRe4H8NO20,0.1685870577547437
mp-30169,Ba4Ni3Ge20,0.017696618055555113
mp-557457,TmSeO3F,0.0
mp-697076,Ti3Zn3C,0.0
mp-541623,Ti4Fe2O,0.9361179953571456
mp-754334,NaTmO2,0.015700453749999174
mp-604239,Co2H34N12Cl3O10,0.13830542172010762
mp-22180,Dy(GePd)2,0.0
mvc-4560,Si2MoO7,0.3216481051249964
mp-566683,K2Cr3(ClF3)2,0.0
mp-849379,Fe10O9F11,0.09369763566666743
mp-1026889,BaMg14Cu,0.15776720343749995
mp-569964,CdI2,0.0010544702222223812
mp-579223,Na3LaV2O8,0.005204792767857569
mp-995198,CO2,0.3184293308333377
mp-770775,Li3V5O14,0.09637767204548453
mp-505681,Sm2Si5Ru3,0.28843742375000136
mp-769449,Li4Mn5(Fe2O9)2,0.09593132758064282
mp-760791,Li4Cu5F17,0.05187115227565632
mp-754408,Ba2SrI6,0.05629082749999981
mp-10677,CaPAu,0.0
mp-611471,CaMnSn,0.18251926333333301
mp-543082,Fe5O8,0.4394112105288448
mp-32113,Mo2P3O13,0.0074670104166632
mp-4952,La2MgNi2,0.0
mp-764265,Li10Mn3V5O16,0.08243918159313868
mp-849978,Mn6O7F5,0.045209223819461464
mp-867249,TaAlFe2,0.0
mp-1035222,Mg14CuSiO16,0.21138729460938244
mp-720244,NaCaMgAl(SiO3)4,0.3941000865937507
mp-1028254,Mg14NbAl,0.10151047002500002
mp-675745,Cu(Mo3S4)2,0.0686974660000006
mp-554971,ZrFeF6,0.13543265218750022
mp-639724,SiO2,0.011524387499999731
mp-565300,BaV3O8,0.005360830833266661