mpid,formula,e_hull
mp-8281,Ba(CdAs)2,0.0
mp-778538,Mn6O5F7,0.07482768201390044
mp-1026408,BaMg14Sn,0.10805999781250007
mp-743660,FeHO2,0.040736648437500016
mp-756908,Li3SbO3,0.0963337570714291
mp-673705,SnPSe3,0.17848479550000107
mvc-5322,SnP2O7,0.11075479099999708
mp-551918,AlBiO3,0.052586945624994996
mp-17173,Rh2S3,0.0
mp-775843,Zr2N2O,0.00482545975000015
mp-540054,Fe(PO3)4,0.06315429942402861
mvc-8140,MgSn(GeO3)2,0.0770826494166652
mp-779957,SrLiLa7Fe3O16,0.07027296877976674
mp-863006,CsB2H5O6,0.0
mp-510654,Cu2PHO5,0.013507273086428741
mp-1098390,KMg30CO32,0.1796860439355461
mp-543028,Tl2TeO3,0.0
mp-570728,CeNdI4,0.08550958277777765
mp-778781,Li2NiO2,0.07995019099999999
mp-980661,YTlAg2,0.003772113749999751
mp-780820,CrO,0.08191866999999853
mp-767559,LiMn2(PO5)2,0.06248899008332565
mp-569743,Ti4MnBi2,0.0
mp-31056,Dy3InN,0.0
mp-1098793,Mg30ZnCoO32,0.005811423593750753
mvc-9126,Mg(NiO2)4,0.014651394102563662
mp-6903,Na2Ca4ZrNbSi4O17F,0.0
mp-1096148,Ba2ZnHg,1.40013643
mp-776842,SrLi4NiO4,0.08545216650000143
mp-5788,NaUO3,0.0
mp-25599,NiO2,0.55648577138889
mp-13136,WC,0.4507304449999996
mp-761604,Li4MnP2O9,0.05659680640625009
mp-1069379,GdCoSi3,0.0
mp-770967,Li2MnP2O7,0.008723945104167186
mp-775137,CoCu3(PO4)4,0.019093500937500167
mp-767269,Ga7(Fe3O8)3,0.02345778506249996
mp-8132,Li(TiSe2)3,0.0
mp-1039892,Mg30CrSiO32,0.09794735277343758
mp-20687,Sr2LuRuO6,0.0
mp-25128,SrV6O11,0.034152551111095164
mp-772564,NiH8(CO5)2,0.07734238148809514
mvc-3359,Ca3Bi2O7,0.015811054583331874
mp-770083,Rb5FeO4,0.00038835562499883736
mp-773378,Li6V3P8O29,0.02490390893114558
mp-541289,Y2S3,0.0
mp-22026,Ce(NiSn)2,0.07011899299999769
mp-33533,La2UTe4,0.053270445773807566
mp-862820,PaSi3,0.0
mp-1096259,Zr2HgAu,2.77635540625
mp-768702,Ta2Zn4O9,0.054513684666666506
mvc-4945,CaTi2O4,0.14934239803571892
mp-560349,La3NbO7,0.0
mp-4992,ScCrC2,0.0
mp-1035073,Mg14VCoO16,0.05160397492187574
mp-1264,CdAu3,0.0039572112499994825
mp-853193,Na6Mn2B4PO16,0.04722559859296105
mp-553991,Ti(GaO2)4,0.0026405194230836315
mp-1095698,Sr7CaTi5Mn3O20,0.08645956330662408
mp-19254,FeSO4,0.0
mp-29249,GeAsSe,0.0
mp-764678,LiFe2(BO3)2,0.04811117767048057
mvc-625,Ca2MnNb2O8,0.05751188365384685
mp-687247,K5YCo2(NO2)12,0.18234373283578265
mp-1033550,RbMg6GaO8,0.4629095081249988
mp-767414,K2HoPCO7,0.02025577583334215
mp-12911,Ba2LaRuO6,0.0
mp-672234,N2,8.881784197001252e-16
mp-504228,Li3Ni2(PO4)3,0.05771756781249504
mp-868280,LiNi4(PO4)3,0.05323957262499324
mp-1078054,Sn2Rh3S2,0.0
mp-560724,Na4UC3O11,0.0004496447368422807
mp-773317,LiFe5O8,0.4163866510714272
mp-1097036,Li3PS4,0.015908424062497598
mp-22168,Mn(InS2)2,0.0
mp-767454,PWO5,0.011366757500015371
mp-558944,Tl2Cu3(SeO3)6,0.0005006030172465259
mvc-16781,Al(FeS2)2,0.2339684854761889
mp-707190,K2SnBr6,0.0046300727777777145
mp-32515,LiV(PO3)3,0.02099798227720396
mp-505349,KCuPO4,0.001368808928573273
mp-32432,Mg2VO4,0.0986349371428732
mp-19891,Pu2C3,0.0
mp-675248,Sr4Bi14O25,0.8520451912209355
mp-1076431,La7SmCr2(FeO4)6,0.0998975238750024
mp-1093894,ZnAgPd2,1.9850837683333349
mp-23384,LiIO3,0.0
mp-684890,Tb4F15,0.03412533270684115
mp-1097118,Sc2AlGa,2.75706172671875
mp-762472,Li9Co13O28,0.03172995878888951
mp-17438,Na2GeF6,0.050987959259259696
mp-640470,Pu2InPt2,0.6930943550616444
mp-614013,CsSnI3,0.006791634999999907
mp-1073075,Mg2Si3,0.3469342409999996
mp-697653,MgH8(NF2)2,0.030626080666669605
mp-634113,Cd2H2SO6,0.003324836818175747
mp-744474,Mo2P4O15,0.8550427265079499
mp-973142,ScZn2Pd,0.0281357244021736
mp-555034,TeAs(IF2)3,0.08387097931818087
mp-699570,VTe4Cl4O,0.07573200103125187
mp-25305,Y2Ti2S2O5,0.0
mp-11711,Gd(BO2)3,0.0
mp-569768,NdInAg2,0.0
mp-771203,Li4MnCr3O8,0.008923694375011948
mp-1027463,Te4Mo3W(SeS)2,0.07470695333333399
mvc-16347,ZnCr2O4,0.1834903682142857
mp-690121,Zn(FeO2)2,0.04885634142857054
mp-607298,Cs2Pd(ICl2)2,0.005611032222221368
mp-972244,Tm2ZnGa,0.00534301749999999
mp-771175,Li2MnBO4,0.10540633210935192
mp-866064,NdMgAu2,0.0
mp-769207,Y2(SeO4)3,0.07890689176470199
mp-14390,Na3GaP8O23,0.0
mp-971985,TbAlCu2,0.00770876107142815
mp-1008753,Ti2Al,0.8937391891666637
mp-9374,MnMoN2,0.0
mp-1073623,MgSi2,0.21024714175926107
mp-2752,Nb3Au,0.02276602750000124
mp-1073208,Mg2Si3,0.2594539306111101
mp-20644,PuPt2,0.5342020916894956
mp-23572,KBiP2S7,0.0
mp-1097627,ScHgAu2,1.508805512499999
mp-9971,YGe,0.0
mp-1093698,Y2CoCu,2.4801450106250003
mp-1099078,BaMg14Ni,0.1943651237499997
mp-769003,BaY3Cl11,0.07089314366667042
mp-6246,Ca2CO3F2,0.02806370343750331
mvc-16803,Li(NiO2)2,0.03170355892857213
mp-569211,NdFeSb3,0.033269628651514616
mp-565854,RbNd(WO4)2,0.0
mp-1022230,Mg6FeSn,0.1686805549999999
mp-983229,Pm2ZnRh,0.0
mp-853145,Mn4O7F,0.06347823614584414
mp-764968,InPH5NO5,0.0
mp-763041,Fe2O3F,0.08369702197916506
mp-850407,LiMnP(H6O5)2,0.03733737739999743
mp-1006258,ErPu3,0.26037045734374864
mp-1097140,SiTc2Sb,2.9319896375
mp-1095035,Eu2InPt2,0.0
mp-651724,Fe2Te2Ru2(CO)11,0.4096339030654743
mp-985575,LiAg(CO2)2,0.17229600671874934
mp-1017129,Mg6BiSb,0.139211005625
mp-2618,DyAg2,0.0
mp-1026975,MoWSeS3,0.01058800166666618
mvc-15,CrS2,0.052998260833334136
mp-1094667,MgGa,0.08078037520833314
mp-8280,Ba(MgAs)2,0.0
mp-28643,H9CN9,0.14448305109052662
mp-27173,P4Ru,0.0
mp-1039612,RbMg30BiO32,0.12995084140624955
mp-554863,KNb5O13,0.005369716710527328
mp-972176,Zr5Al3C,0.03905889157407305
mp-1097547,Nb2OsRu,4.1900364026388885
mp-1093691,Ta2FeRu,4.285703986562499
mp-762939,Li5V5O12,0.08603502821968778
mp-1038204,LiMg30AlO32,0.00721527355468865
mp-567002,KMoIO6,0.0
mp-767363,Li3Mn2(FeO4)2,0.17383432033335475
mp-774859,LiNbPO5,0.0791578638819388
mp-567914,TeI4,0.007688995749999926
mp-4374,UAsS,0.0
mp-767014,Na5(WO3)6,0.02448529665517185
mp-1080335,CeSe2,0.12979284375000066
mp-771902,Li4Ti3Cr2Fe3O16,0.057757639708043484
mp-866745,La3CrW(SO2)3,0.10704025196428192
mp-1095890,CaMgIn2,1.5820412749999997
mp-13923,SnPS3,0.0
mp-764388,Li8Co3NiO8,0.11828537500000368
mvc-732,AlSn(WO4)2,0.08699914522435925
mp-1097069,Sc2TlOs,2.620533417083333
mp-1058798,LiBe,0.3629378525
mp-865274,TlInS2,0.0
mp-17441,Mg2GeS4,0.0
mp-1028111,CaMg14W,0.20053049093750008
mp-631463,CuTcBi,0.6840079683333329
mp-31025,Sc5NCl8,0.0061152490476130686
mp-998912,TlS,0.058487865156255474
mvc-3291,MgNiPO5,0.12457680578125085
mp-28781,PrZr3F15,0.004571029342107735
mp-13929,Ba2SmReO6,0.0
mp-777703,MnOF,0.06782869652778256
mp-781597,Mn12O5F19,0.06404208572917636
mp-1068635,Y(SiIr)2,0.1946351099999992
mp-777475,Li3FeF6,0.025370181333325803
mp-13357,Yb2MgSi2,0.08154463850000049
mp-616204,Ga3Cl7,0.008980021750000233
mp-773587,AlNiH16N(OF)6,0.0014862666129031865
mp-541644,CaMn7O12,0.016522964749993818
mp-1098558,Mg30CrCdO32,0.034697929843749975
mp-1026700,Mg14NbSi,0.1552215376785715
mvc-5335,ZnCr2O4,0.2228820749999976
mp-862546,Sc2AlRu,0.0
mp-777247,Li2Mn3(BO3)3,0.07022772230390295
mp-766396,Ti(PO3)4,0.03890289161764393
mp-771431,Cr3Sn3(SbO8)2,0.11743215541665375
mvc-9328,Pr(SnO3)2,0.2255363977083329
mp-1022064,Mg6CrCu,0.20296032312500006
mp-504397,LiMn4(PO4)3,0.04005149699999677
mp-541587,U3Cu2Se7,0.0
mp-10753,Er,0.14061577499999967
mp-807,NpTe,0.03878526015624928
mp-1079629,Mg(BC)2,0.010004808749999759
mp-3523,SrGd2O4,0.012837102142857049
mp-1016854,MnCdO3,0.28582044200000034
mp-1180,MnPt3,0.0
mp-644594,K2MgMo2(H2O5)2,0.17506977039473615
mp-16514,Al3Ni5,0.0
mp-42508,Na4BeAlSi4ClO12,0.04635056782608782
mp-38108,Ba3Pt2O7,0.0015198878750046776
mp-777362,LiFeF3,0.08505409799999697
mp-695367,La13Al12Si18(N13O5)3,0.04613387666666924
mp-761765,Li3Mn3SiO8,0.08838223395837375
mp-507,SiNi2,0.05097725416666954
mp-1094067,ScF3,0.10836042062499997
mvc-795,Sr2AlFeCu2O7,0.09188191798075884
mvc-2609,MgCrO2,0.29806249687499786
mp-25589,NiPO4F,0.2060406623214286
mp-1073728,MgSi,0.1174663263888882
mp-568985,La2B3Br,0.0097306840208331
mp-530165,Li13Ti22O48,0.007595873152610011
mp-777071,Li3Sb(PO4)2,0.07355454982142895
mp-9102,RbVP2S7,0.0004776266477266589
mvc-3358,Mg2Nb2SnO8,0.05388863487179485
mp-1096546,ScGa2Os,2.99190419828125
mp-530245,Tm2TiO5,0.17613927296874898
mp-765603,Li4FeCo3O8,0.1595620628124994
mp-761439,LiMn(SiO3)2,0.05926602766071376
mp-1029331,LiHf2N3,0.0
mp-26586,Li3Sb2P5O18,0.03610180919643202
mp-573358,CsBSe3,0.0
mp-1063176,TbCd2,0.008559126666666472
mp-1016938,VHgO3,0.31245145399996765
mp-17186,Ca3AlAs3,0.0
mp-6576,YNi2B2C,0.0
mp-1038344,Mg30AlCoO32,0.027650921601562573
mp-768003,Na5Mn2P2(CO7)2,0.004403114399998742
mp-568396,Ba(FeBr4)2,0.0
mp-583774,Gd2MoO6,0.0
mp-1026532,BaHfMg14,0.1546944109374997
mp-2088,CeAl2,0.0
mp-1022581,CeMg6Zr,0.10281825000000032
mp-20549,CaPb3,0.0
mp-27892,B5H11N2,0.14813753954629494
mp-975838,K3Nd,0.5366052743749998
mp-849754,Li2Cu(PO3)4,0.06748644188597464
mvc-11828,Ca2CuIrO6,0.1010942005000004
mp-8806,Sr2Cu2O3,0.5488339285714314
mp-863751,Pr3SiAgS7,0.0
mp-542302,CuBi3PbS6,0.0046892699999991905
mp-22361,CeReB4,0.0
mp-767222,LiFe2(PO4)2,0.02231554394228219
mp-1074345,Mg4Si3,0.23283716873016005
mp-776366,LiFeF4,0.10388503935186044
mp-651039,Ba2Fe3F10,0.00737074816667338
mp-10116,UB2Ir3,0.0
mp-979253,Sm3Tm,0.01699060062500024
mp-573145,CsGa3S5,0.0
mvc-9671,PrZn(MoO3)2,0.0590649236666625
mp-764187,V4OF11,0.0013030081250002825
mp-1822,TiAs,0.0
mp-772661,Li4MnSn3(PO4)4,0.06401462187501218
mp-1009152,MnN,0.00845743000000354
mp-561903,Sr2MnClO3,0.0
mp-759224,Li5CuF8,0.017341766666667983
mvc-610,BaTi4O8,0.21608135062231604
mp-1878,HfBe13,0.0
mp-29242,Ba3PbO,0.0
mp-29147,MoCl5,0.00011418111110650386
mp-568690,CdBr2,0.0009744133333331463
mp-1097041,IrO3,0.0
mp-986716,Sr3N2,0.030140780749998264
mp-30651,MgGa2,0.009409665000001954
mvc-13792,Ca2WN2,0.0
mp-561456,Na3FeS3,0.011982945000000631
mp-773446,Na5LiFe2P2(CO7)2,0.011963702307690838
mp-762567,LiMn3(PO4)4,0.06565038390623723
mp-851260,Fe3O5F,0.1014725926388884
mp-1030569,Te2MoW3(SeS2)2,0.07697019166666852
mp-1073665,MgSi2,0.26777562759259466
mp-569898,Ce3GaBr3,0.0
mp-6072,TmMn6(GaSn2)2,0.0
mp-764963,Li2CoSi3O8,0.08522907035714322
mp-698063,Na2P2H2O7,0.0
mp-752689,Ba2Na2O3,0.08652028571428527
mp-778624,Fe6O5F7,0.08084747055555841
mp-17708,Ge3Sb2O9,0.0
mp-779200,Li4Nb2Cr3Ni3O16,0.03518343364579924
mp-1022113,Mg6CuSn,0.1020271056250004
mp-752515,YTa3O9,0.0
mp-763733,Li2CrPO4F,0.02648963518518776
mp-19210,CoPtO2,0.0
mvc-6446,Mg3Mn3(AsO4)4,0.021673321384610308
mp-1096982,H2C2S,1.034400983428572
mp-1033130,Mg6AlZnO8,0.1958122893750005
mp-862791,GaCuPt2,0.048900032500000634
mvc-9576,Zn(AgO2)2,0.1347420835119051
mp-566148,LiCdCoF6,0.04371357999999858
mvc-16579,MgFeF4,0.1272504183333334
mp-862876,PmAg2Pb,0.0
mp-776386,ZrO2,0.08952270708333288
mp-556549,Bi2O3,0.02442031049999916
mp-1073642,MgSi2,0.14747762592592828
mp-571242,Rb2CoCl4,0.0014276853571431047
mp-912986,UTe,0.09819207583333343
mp-1072655,ZrCu2,0.011908382777776616
mp-1020024,Li6B4O9,0.0
mp-778059,Li2FeF5,0.053305478715280685
mp-23058,NdClO,0.0
mp-756725,Ba2CaI6,0.006872108611111205
mp-554174,Ca2P2H8O11,0.016644159891304078
mp-1036519,BaMg14AlO16,0.24071293927734416
mp-684861,NaYbTiNbO6F,0.06607561062500444
mp-1003854,KMnO2,0.14899052687500536
mp-19104,LiYb(WO4)2,0.0
mp-763744,LiMnP3HO10,0.0942304923958046
mp-780909,Li2Fe3F8,0.08845565365384632
mp-983581,Er2PdRh,0.011240402499999469
mp-1077095,LuCdNi4,0.0
mp-763458,V2GaO5,0.002188635052084109
mp-758174,Y6O5F8,0.052720317763157006
mp-568747,K(NiSe)2,0.0036434385555548228
mp-1026830,KMg14W,0.2904264762500004
mvc-15502,Cr2O5,0.27629815910714584
mp-722381,CdH4S2O5,0.050458292783853935
mp-578619,NaNiO2,0.02543550999999411
mp-10569,YbSiIr,0.0
mp-864665,Nd2Si3Rh,0.00033339041666735625
mp-780634,Li6MnFe5(BO3)6,0.005469418935187598
mp-555012,La6S4N3Cl,0.026015106369041696
mp-1019377,Al(PO3)3,0.0
mp-771572,NbV3O8,0.09239909052082852
mp-510400,GdIr3,0.0
mp-753593,Ti10O13,0.03611352260868728
mp-1070852,YbHCl,0.0
mp-641699,CsNb2PS10,0.0
mp-773011,Dy2Ge2O7,0.029350941136363495
mp-1096526,CsRbI2,0.39068959
mp-768253,Na5Bi2As(CO4)4,0.07102730417856584
mp-1097402,ZrScTc2,3.635287879375
mp-1028459,TeWSe,0.044093559583334496
mp-1091364,LiDySn2,0.11006114346955087
mp-777005,Li2FeF4,0.2233026614285718
mp-865552,CeCdAg2,0.0005004560937500457
mp-12049,Nd2Sb,0.0
mp-1093774,ScSi2Tc,3.1674444587499995
mp-547271,ReO3,0.0
mp-1078609,SrN,0.4374753462499985
mp-862891,PmCdAu2,0.0
mp-1096628,La2CdIn,2.3022518025000003
mp-865209,TmHfOs2,0.0
mp-2254,Al2O3,0.01690661800000015
mp-15387,Ba6Cu11F34,0.0005310811764696055
mp-5305,CuAsS,0.0
mp-3034,MgAl2Cu,0.0
mp-32379,Li3Ni3(PO4)4,0.061215132620183965
mp-762465,Li3Fe7O12,0.1827762888636375
mp-1068734,Ce(SiIr)2,0.15905451400000106
mp-1065792,Mn2CuSb,0.2108187512500006
mp-757479,Li2Sn(PO3)6,0.08313094839505819
mp-769601,LiVSO4F3,0.0514635816363711
mp-763287,Co3OF5,0.04117747319444477
mp-1028295,Mg14SiSn,0.07262943068750037
mp-780012,LiMnPO4,0.05473100785714191
mp-764184,NaMn8O16,0.07398420199999745
mp-631548,Tl2SiNi,0.8773663850000002
mp-557855,CaGaBO4,0.0
mp-1039508,Ce2Mg,0.6526880627777789
mp-662706,SiO2,0.009528171904760184
mp-1035407,RbLiMg14O15,0.21698076124999946
mp-695816,LiFeP2O7,0.07995828659090876
mp-849326,Ta3AgO8,0.01000553562499995
mp-25680,Rb2CoH8(CO5)2,0.0
mp-1031383,KRbMg6O7,0.4844194997499986
mvc-10593,BaMgMnF7,0.01849161650000664
mp-1017109,CsMg6Nb,0.4026217575000004
mp-21943,Ba(InS2)2,0.0
mp-850869,Fe5O7F3,0.09319033324999904
mp-1096969,FeAgS2,0.18551859124999925
mp-9934,BaMgSi,0.0
mp-752411,Tm2Pb2O7,0.021247311477272213
mp-764363,Na5(WO3)13,0.005089903596498857
mp-570896,Tl2Pd,0.0
mp-21412,Ce3Tl,0.0
mp-1013542,Ca3BiN,1.7565346099999997
mvc-10621,BaCaMoF7,0.023313429499999042
mp-772416,Li2Ti3Sn(PO4)6,0.002120045208337196
mp-1022479,Mg6ZrGa,0.13586294906250007
mp-7774,Na2SbAu,0.0
mp-753318,DyBO3,0.06014396600000005
mp-1096714,ZrCrTc2,3.888126411875
mp-21296,PtPb4,0.0
mp-861948,LiPm2Al,0.0
mp-639756,DyIn3Cu2,0.1712223761111109
mp-567106,KIn(WO4)2,0.06231731472220225
mp-1095395,EuVO4,0.026619150833331773
mp-24942,FeBiO3,0.05687134124999992
mp-976184,Hf4Co4Si7,0.0
mp-643801,K2H6PbO6,0.0
mp-762678,LiFeSiO4,0.001475267857135698
mp-5259,RbAlF4,0.0002778488333374796
mp-1037750,YMg30CoO32,0.04796490089843797
mp-752393,Be2P2O7,0.07790417340908817
mp-15013,RbBS2,0.0
mvc-3217,Sr3Co2Cu2S2O5,0.17310983321428264
mp-991161,Eu(FeAs)2,0.0
mp-8392,Sc3Si3Ni,0.0
mp-1025731,Te2Mo2W(SeS)2,0.07600666722222016
mp-22449,InCu(PSe3)2,0.018393489875002444
mp-1028256,Mg14AlV,0.1062136815625001
mp-13985,Li2PdF6,0.0
mp-686724,Sr2La14Mg4(Ga4O15)3,0.0980293922564881
mp-1028012,YMg14Nb,0.11954319749999875
mp-1096947,DyMn2O4,0.03284742357140402
mp-756591,Sm3NbO7,0.0018542803409076207
mvc-5136,ZnCr(SiO3)2,0.07253186700000658
mp-1094763,MgCd2,0.0
mp-761739,LiCoSnO4,0.07103361928570529
mp-763551,Mn2VO4,0.06681657107142946
mp-1079167,HfGeRh,0.0
mp-978261,MnBe2Co,0.011138466562499616
mp-5370,ErNbO4,0.0
mvc-1818,Ba2ZnCuBi2F14,0.034041845562502886
mp-1097481,LaSbAu2,1.7797759756250002
mp-1036531,Mg14TiAlO16,0.1252902330000003
mp-862758,PrMgHg2,0.0
mp-545544,Ba2TaBiO6,0.0
mp-1095180,Ca2CdAs2,0.0
mp-763537,LiCo2(CO3)3,0.09201179116668444
mp-1030269,Te4Mo3WS4,0.08024582333333274
mp-11974,TmSnRh,0.0
mp-765976,Li3V3P8O29,0.04920032619186365
mp-1095141,Sr2MnMoO6,0.007963156499998902
mp-23903,HBr,1.1332541050000002
mp-1038570,Mg30CrCdO32,0.03441711312499951
mp-758350,Nb8Tl8O25,0.019512856432927
mvc-14970,Ti4(FeO4)3,0.1278565065789543
mp-1095213,BaFe2S2O,0.002232590000001089
mp-21428,Th2In,0.0
mp-814,DySe,0.0
mp-25592,LiNiO2,0.006953050624999514
mvc-10607,BaMgNiF7,0.004004348499997867
mp-764820,Fe2OF3,0.09232251916667696
mp-7827,K2Ni(CN)4,0.08828395647727216
mp-1033835,BaMg14BiO16,0.31790339187500205
mp-765808,LiNi2OF3,0.08914130642857376
mp-11132,KPrTe4,0.010026773888887952
mp-1095209,GdFeAsO,0.5994017470833324
mp-1075115,Mg3Si4,0.20630525619047546
mp-25590,PrNiO3,0.0
mp-771060,Na5LiNi2P2(CO7)2,0.012640322115387015
mp-542881,Ce3(CuSn)4,0.0
mp-644276,Na2Sn(H2N)6,0.9486753848809512
mp-684686,Yb43Se45,0.19446750275923289
mp-1002187,TcB,0.3744371186363615
mvc-5466,CoO2,0.16597489312499736
mp-1032546,HfMg6ZnO8,0.3635930092187501
mp-32539,W(ClO)2,0.07814907966666862
mp-978929,SrAcZn2,0.0
mp-756553,Li5Cu3(SbO5)2,0.04827493324999743
mp-1056627,Cr,0.005861900000001086
mp-10690,EuCoGe3,0.0
mp-690687,Ag2H2IOF,0.0
mp-1075577,Mg5Si6,0.19474155035353835
mp-1093646,SnRh2Au,2.418433603125
mp-1070625,SO4,0.1530104355833357
mp-762529,Li2(FeO2)5,0.10743104238970867
mp-554763,NpAgSeO5,0.0035694549218741045
mp-569590,Yb4Sb6Rh7,0.0
mp-756205,ScBiO3,0.03130478012499882
mp-765765,Li2V2F7,0.10423896628787954
mp-775608,Li2MnCr3O8,0.05114353714285258
mp-997032,MgAuO2,0.037558206250000836
mp-1014462,Li2YAl,0.3011447258333337
mp-675419,LiPrS2,0.03424991968752522
mp-1034331,HfMg14VO16,0.17783465945312482
mp-867330,Al2FeNi,0.00037373999999967816
mvc-1049,Ba2YMn3O8,0.004955331726181456
mp-779593,Na5LaO4,0.061762440500002576
mp-973396,KBeO3,0.622043538999999
mp-560513,Gd3Si2Cl5O6,0.0
mp-579517,Li9Cr3P8O29,2.803571427989482e-05
mp-17753,Nd3RuO7,0.0
mp-10388,Nb5(PPd)4,0.02034047155983032
mp-8956,Ho2S3,0.00777878566666601
mp-961684,LiCaAs,0.08758097416666644
mp-1022672,Mg6ZnB,0.27735292134999945
mp-753775,BaCaI4,0.09655871020833297
mp-542159,FeCuPO5,0.021521216250022242
mp-1098396,LiCeMg30O32,0.04190402916015668
mp-981366,Zn3N,0.6843370059374996
mp-1016882,CdOsO3,0.3587641654000002
mvc-14994,Al5(CoO4)3,0.0824024809687538
mp-1093557,YZnAg2,1.7938520937499998
mp-866029,Gd2IrPd,0.0
mp-5913,Pr2Si2O7,0.0
mp-762063,Na4Cu6O5,0.04627714366667757
mp-615503,CrPC5Br3O5,0.5387953394074074
mp-765138,Li2Co(CO3)2,0.07826851318181216
mp-15336,Sc2Cu2O5,0.06911945319444346
mp-16786,Sr2EuNb(CuO4)2,0.022229077857179647
mp-776984,HoInO3,0.07208703574999742
mp-866287,DySnAu2,0.0
mp-1019323,Th2HN3,0.02530219583333704
mp-675943,K3UF3,0.5037957700000026
mp-640118,CeZn3,0.0
mp-978254,La3Ag,0.12932535875000006
mp-556850,BaMnF4,0.003562852500001767
mp-6254,Ba2TbNbO6,0.0
mp-1097221,Y2MgHg,2.347054685
mp-1330,AlN,0.17202432500000153
mp-32056,Mo(PO4)2,0.003504094318180329
mp-607715,PrZnRh,0.0
mp-557685,NbIO2,0.0
mp-540218,Li3Cr(PO3)8,0.05005683565972152
mp-1027551,Mo3W(SeS)4,0.014248001666666175
mvc-16139,Sr2TiAlCu2O7,0.1879512845192295
mp-1016334,SrMg6B,0.3922127963913691
mp-1080867,CeSe2,0.5458462264583348
mp-16613,AlAuO2,0.012279223125000628
mp-1040451,Li20Si3P3S23Cl,0.02073153799999972
mp-11131,K2Hg3(GeS4)2,0.0002026099999996589
mp-8234,BaTe3,0.011695468749999716
mp-680259,TaTe4,0.0018780188333300527
mvc-5013,Mg2CuWO6,0.0830416945000021
mp-558427,Na6Mg(SO4)4,0.0
mp-989595,CsRb2InF6,0.02556121729166616
mp-540301,Ni(PO3)4,0.10649460845588266
mp-961652,ZrFeSb,0.04014142166666801
mp-14782,Na6MnTe4,0.0
mp-1025276,Sm2AlNO3,0.09335853982142872
mp-21156,TbPb3,0.0
mp-849457,Li3Ni(SbO3)4,0.07074058212498979
mp-753979,Sn2P2O7,0.04907015636362466
mp-560929,Na3CrF6,0.0
mp-1098887,KMg30CoO32,0.05762264062499424
mp-1027070,Te2Mo(WS2)3,0.09840258250000122
mp-7738,LaSeF,0.0
mp-1036233,KMg14MnO16,0.11075611914062566
mp-31217,Cu8O,0.11576472055555607
mp-765911,Mn7F18,0.03732662746665927
mp-985581,SmFe12,0.2618946051923077
mp-698021,CaH12(IO7)2,0.02081413508620677
mp-625172,H3ClO5,0.053103018333334966
mp-669332,Mn3Bi,0.617102693125001
mp-697030,Mg2H6Ru,0.0
mp-3831,SmPO4,0.0
mp-779175,Li8Mn7Fe(BO3)8,0.005341313159719086
mp-1009655,CaC2,0.7500725383333426
mp-761862,LiB2SbO6,0.07266129072223215
mp-631589,VN2(Cl3O)2,0.08254684840909121
mp-1016337,SrMg6B,0.3791106476413689
mp-22894,AgI,0.0009864324999999674
mp-22217,CePd5,0.08674912166666626
mp-865335,Lu2NiRu,0.0
mp-773245,TiMn3O8,0.04233252000000398
mp-1073530,MgSi2,0.2507977750925954
mp-721583,CdH2SeO5,0.0
mp-777039,NaNiPO4,0.028547923571429656
mp-641775,Sr19In8N7,0.0
mp-19126,NdCrO4,0.0
mp-28323,Pd2Cl2O,0.035584867666667463
mp-9994,Ho11Ge10,0.0
mp-1025442,IrI3,0.0
mp-557544,Fe(PO3)3,0.0
mvc-7443,MgSnBiO5,0.1062028322656241
mp-978527,SmDyTl2,0.003610761250000039
mp-765421,Li8VCo3(PO4)6,0.09287090473215542
mp-22541,MnNiSb,0.3218388833333332
mp-1078313,Bi2Pt,0.01014512833333292
mp-29562,Tl2MoCl6,0.0
mp-766716,Mn2AsHO5,0.0
mp-996940,TiReN3,0.07614823585733355
mp-778814,Tm2WO6,0.0
mp-17682,Zr2Fe,0.07932911858332581
mp-1072444,UPt5,0.0047930783333329785
mp-1033867,BaMg14CdO16,0.2228944995312503
mp-13010,YSn2,0.0
mp-764106,V4O7F5,0.02642732520833846