mpid,formula,e_hull
mp-540900,B2PdO4,0.013396641190476007
mp-693358,Ca6Ti5AlSi6O29F,0.008060930664061772
mp-1025841,Mo2W(Se2S)2,0.03468874722222015
mp-22936,Ca2NCl,0.0
mp-20330,Mn3SiIr,0.12834268910000013
mp-850536,BaGa12O19,0.01510115437500126
mp-17325,Ba5Sn3,0.00908496624999966
mp-772526,Li6Mn(BO3)3,0.05690926820174536
mp-555077,Sn2IF3,0.0006256283333332393
mvc-2307,Mg2Cr9O13,0.18672654187500007
mp-1096997,H6PbCBr3N,0.04383580885416638
mp-979116,Th3Br,0.6074082106250005
mp-704097,Sr6Co4Bi2O15,0.031887708148145684
mp-653248,Cr3B7ClO13,0.0
mp-1030615,Te4Mo3WSe4,0.029839308333333925
mp-651333,Gd2WO6,0.0
mp-765940,LiV(OF)2,0.06376079916668242
mp-1076595,La7SmTi2V6O20,0.2494693550520868
mp-780191,Li4Co3OF11,0.05461975730262747
mp-567722,Ca7NbSi2N9,0.0
mp-9225,ScSiPt,0.0
mp-861970,EuCuSF,0.0
mp-758357,Li3Ti3(PO4)4,0.10673840040933592
mp-1079790,TbSnPt,0.0
mp-19219,Li3VO4,0.0
mp-29405,RbSnI3,0.0
mp-565519,V2Cu5(HO3)4,0.04581381021738995
mp-1033319,Mg6BWO8,0.6285360556770838
mp-1028282,Mg14VBi,0.09638622562500032
mp-850366,Li3MnFe2(BO3)3,0.0046868953703693705
mp-771298,Li4V3Cr2Co(PO4)6,0.07759223874166478
mp-574426,CsCeCdSe3,0.0
mp-9473,Ba(NiP)2,0.0
mp-1096862,CdHCl3,0.9311279740000004
mp-771106,Dy(PO3)3,0.0
mp-5626,K3SbTe3,0.284415494642857
mp-9998,MoAs,0.047966271428571794
mp-778345,Li2FeF5,0.02027842090278132
mp-561133,Sr5Nb4O15,0.01973858062499545
mp-20229,Sm3InC,1.8521350901666664
mp-540704,MgCrO4,0.01072183374999458
mp-1016271,Mg7Al,0.02905145355769245
mp-774310,Li10Cr2Fe3Co3O16,0.08145722411764744
mp-560046,Ta2Pt3S8,0.0
mp-39239,SrLaMnRuO6,0.0
mp-11442,HoGaNi,0.0
mp-9379,Sr(SnAs)2,0.0
mp-1060884,UCd,0.3652727475000006
mp-680417,CeSb(SBr)2,0.008056948819444187
mp-866181,Li2NdIn,0.0
mvc-11924,Mg3Bi2(AsO6)2,0.18060140184210027
mp-574060,KB(CN)4,0.3883903702499971
mp-561084,Nd4Al2O9,0.0
mp-1098938,Mg30NbNiO32,0.08968511239062504
mp-27656,Zn2(PS3)3,0.0
mp-766769,LiFePO4,0.08455051392857005
mp-686617,Nd10Si10N17ClO9,0.0
mp-12622,SrPdF4,0.0
mp-32383,Li2NiP2O7,0.023887406041659176
mp-1096372,TiZn2Pd,2.25346227625
mp-983590,Be3Fe,0.005732538124999742
mp-16107,Rb3P6N11,0.0
mvc-2616,Ba2Tl2Zn2Cu3O10,0.12475630565789507
mp-998894,YC,0.8093441112500024
mp-772589,Li2Fe(Si2O5)2,0.06382426308823508
mp-763910,Li4MnFe3O8,0.008130840312510657
mvc-7701,Zn2Sn3O8,0.0655425357692323
mp-849796,NaZn4H18SClO16,0.013951363948170759
mp-552547,SrBiIO2,0.0
mp-5376,Y4Ga12Pd,0.0
mp-12803,BaEr2F8,0.0
mp-7180,UGeAu,0.09975339791666736
mp-24515,RbAl(H2N)4,0.7236570189285709
mp-853141,Li3V4O11F,0.07585171026315418
mp-557753,K3PO4,0.0
mp-8439,Ca5(AlSb3)2,0.0
mp-763015,LiMnF4,0.07536329944443397
mp-763424,Li3VP3O11,0.07395238092591327
mp-764094,Li3Co13O5F19,0.0866918733749964
mp-655099,NiH12C4(N2O3)2,0.4829665867978417
mp-695298,K22Nb13In11(PO5)24,0.0
mp-3816,Er6Ni2Sn,0.0034603251851850203
mvc-2378,Ba2CaCuNi2F14,0.006166326166666458
mp-853175,Li4V2Si4O13,0.03215001527173378
mp-561129,Pr(MoO2)6,0.09948299258771344
mp-578773,VPPbO6,0.003217405185173661
mp-976356,NdSc3,0.04271133812499972
mp-28588,Na2BeO2,0.0
mp-680286,Os5(CO)19,0.2255804866860469
mp-29009,Li2MgBr4,0.014540987142857897
mp-648971,Ce2Mo4O15,0.02622455045918315
mp-1028026,Mg14ZnMo,0.11616843598750035
mp-1024040,BaMg3O4,0.6649322599999996
mp-863420,Rb4H4C3O10,0.0
mp-999292,Pd3N,1.1054730319049986
mp-565759,Ba6Na2Cr2Ru2O17,0.0
mp-685942,Ti2(Mo3Se4)5,0.02904608608108017
mp-18411,Na3GeSe3,0.0
mp-851014,Li5Mn6(BO3)6,0.032071919404742744
mp-850980,Li2Mn3(BO3)3,0.05271001700978317
mp-631502,CrNi2Hg,0.40038243249999983
mp-1034421,Mg14NbVO16,0.11700731390624952
mvc-11777,Al(BiO3)3,0.4611329810096105
mp-764707,Li3MnFeCo(PO4)3,0.01729312172622421
mp-1079474,ErSn3,0.08901350624999971
mp-557602,KBa4Au(CO)4,0.6032013388095239
mp-976344,Nd2ZnGa,0.00982188875000034
mp-561147,Ba2BiRuO6,0.015368570083349018
mp-777057,LiCoPO4,0.04612420839285837
mp-9344,TiTlCuTe3,0.0
mp-997000,AgHgO2,0.026176856875004702
mp-975298,RbNa3,0.05012890874999987
mp-676611,Bi7(S3Cl)3,0.1705913322368442
mp-1033482,SrMg6BiO8,0.4502128483854175
mp-556633,Na3VF6,0.0
mp-1094334,SrMg2,0.16731399583333315
mp-768357,Ba2Ti11O24,0.03202447334459535
mp-769454,Li9(NiO2)10,0.0008321457051350122
mp-10776,K2Sn(AsS3)2,0.0
mp-863702,Er2MgIn,0.0
mp-684989,W9C4,0.07381564730769162
mp-1079916,DyIn2Ni,0.0
mp-1022724,CaC4,0.3298627460000061
mp-1094488,MgZn,0.09211032956666698
mp-1019275,TbCuSn,0.0
mp-1094330,MgTi3,0.14149346999999945
mp-998711,TlGeF3,0.0
mp-761417,Li2Mn2Si4O11,0.06933797467104341
mp-1028299,Mg14VGa,0.09203852166666683
mp-1031198,NaMg6TiO8,0.08936894940972362
mp-21118,Sr(MnGe)2,0.0300488560000014
mp-976590,HoTlRh2,0.005571201249999547
mp-5054,Pr(CoP)2,0.0
mvc-16223,YCr3O6,0.11007369200000916
mp-1095988,Sr2AgHg,1.2806716468749997
mp-1074924,Mg3Si4,0.2196493404761899
mp-849474,Li2Mn5(CuO6)2,0.08336898591270536
mp-763952,Co3OF5,0.054902091527777586
mp-1076192,Sr5Ca3TiMn7O20,0.04788602982638057
mp-600864,Ba3Nb2CoO9,0.0
mp-1703,YbZn,0.0
mp-672229,Mn3ZnC,2.0687816576304363
mp-16290,ZnNi3C,0.044088097500000416
mp-991768,Ba2YbNbO6,0.00794441499999987
mp-1018121,TiPd2,0.002430369999998128
mp-19811,USnRu,0.0032779494635963857
mp-1097401,Mg2CdPd,1.4766926837499998
mp-861940,Ca2CdSn,0.0
mp-766790,VF4,0.046776249666663716
mp-1069676,Na3Cl2,0.16738167100000026
mp-22997,PbBrCl,0.010003849999999924
mp-758863,Sn2N2O,0.06465826404799913
mp-525,NbSe3,0.0
mp-1068843,Sm2BiO2,0.0
mp-676431,Na4Al3Si9ClO24,0.018949690243903028
mp-29396,Cu2PbO2,0.0
mp-1025149,Ti2B,0.15985712861111168
mp-1098940,Mg30NiCO32,0.1344744600781249
mp-2231,SnS,0.0
mp-699393,YbSi6H54(C6N)3,0.0601872564405479
mp-3583,U2AsN2,0.0
mp-585323,Cr4P7O24,0.018989648446432028
mp-766904,MnV4O12,0.0595285136764705
mp-768022,LiTi4VO8,0.10675080857141772
mp-3195,Sr11(CdSb2)6,0.0
mp-22450,Li2PbO3,0.0
mp-6453,K3Nd(Si2O5)3,0.0
mp-1075731,Mg5Si9,0.2527864382142861
mp-7404,Na3SbO4,0.0
mp-18466,Nd2SiSeO4,0.0
mp-1021204,NaLaMg6,0.16166627642045128
mp-1034447,Mg14VCO16,0.2533356500976547
mp-780145,Li11Mn6O16,0.04552284318182398
mp-758287,Li3Ti2(PO4)3,0.08855007218809073
mp-23707,ReH12C4O5F,0.2303097320923921
mp-866152,TiBeCo2,0.0
mp-21878,CeCo4B,0.017950465208326882
mp-868359,LiMnPO4,0.08928757535713673
mp-766293,Al11AgO17,0.024226834827580042
mp-773941,Na5LiMn2P2(CO7)2,0.01490739487179571
mp-776687,Li5FeF8,0.04296445488094136
mp-707135,Al2Si4O11,0.032853911323528
mp-1096906,CrN2,0.3425208804566644
mp-1093877,Ca2CdGe,1.6760246921875
mp-778331,Li5Fe8(BO3)8,0.04667522693055748
mp-977123,NaTiO3,0.08860730277499496
mp-21182,Sc3P2,0.02161676400000001
mp-905838,SmCo5,0.0
mp-1032129,Mg6CdFeO8,0.07160140390625093
mp-600257,GaH12C4NCl3,0.08016489261904702
mp-758196,Mg3(AsO4)2,0.015134175000000916
mp-779979,Hf2N2O,0.0041651072499959705
mp-759489,BaTi8O16,0.0
mvc-12906,Ba2YFe3O8,0.0
mp-1078573,GeH4,0.20547452710400016
mp-649878,Sn(S4I)4,0.05478836452380964
mp-545482,PdSeO3,0.0
mp-27169,KTa5O13,0.0
mp-997100,SrAgO2,0.008485273749999855
mp-13259,CsHoCoSe3,0.0
mp-20412,InAs,0.11236237937499992
mp-850449,Li5Fe8(BO3)8,0.03993278804166955
mp-1027292,MoWSeS3,0.011182794999998968
mp-1066262,Ti2MnSi,0.2421599251250033
mp-1018688,ErTlZn,0.02751604499999916
mp-1023157,Mg6MnFe,0.2290524512500003
mp-15804,Yb2MgSe4,0.3517021202008923
mp-554532,K2TeClF5,0.0
mp-570749,YbHg2,0.019946635833333337
mp-559636,KB3O5,0.0009223926851893436
mvc-9739,Mg(CuO2)2,0.06872200416666452
mvc-9858,LaMgCr2O6,0.1261099074166694
mp-868281,Li2Cr5(Si2O7)2,0.0
mp-559771,Pr6O11,0.05101300470588477
mp-7469,NaCuO,0.0
mp-1013586,Ba3AsP,0.3462231625769321
mvc-8422,CaMo2O5,0.2545986353124974
mp-906843,CePd3,0.0
mp-1096130,NaTl2In,0.95226421125
mp-767080,LiMn2(PO4)2,0.0854339971153859
mp-759406,Li3Sb(PO4)2,0.08678516803571501
mp-649683,Fe(PO3)2,0.0
mp-780202,Li2FeO2F,0.053043980416666685
mp-1037670,YMg30SiO32,0.1248871639746092
mp-10878,Ca(MnAl2)4,0.016842239010989246
mp-1095984,Li2HgAs,1.1157512621875
mp-631505,BeCuBr,1.3055236641666663
mp-649667,BaDy2MnO5,0.008197577638888731
mp-767036,Li2Co(CO3)2,0.05118255181817588
mp-1070135,Er2Mg2Ru,0.0
mp-1029457,Ba(CoN)2,0.0
mp-997108,RbAgO2,0.007026161250000662
mp-864640,Ta2NbIr,0.0
mp-996979,BaAgO2,0.02783150875000384
mp-1075640,Mg5Si9,0.27687149313491943
mp-862829,PaTe2Au,0.00012236166666834689
mp-561257,LiPr2C2N4F3,0.0
mp-558129,KNaSi2O5,0.002999748263894375
mp-1074798,Mg7Si4,0.2333574172222228
mp-676449,Na4Al3Si3NO13,0.10312210761858598
mp-559329,KCrF4,0.0
mp-915,YCd,0.0
mp-1029950,Te2MoWS2,0.11837923499999993
mp-998568,KAgBr3,0.008591722000000246
mp-27636,Cs2SnI6,0.0
mp-2013,HoTl3,0.0
mp-767035,Zr7VO16,0.06030968645833745
mp-1094345,MgTi,0.17982638249999994
mvc-13531,MoF4,0.04959956600000126
mp-22299,TbNiSn,0.0
mp-1095575,Y3(CuSn)4,0.0
mp-849949,LiMn2PO6,0.09892085225001956
mp-22232,TlInSe2,0.0
mp-2644,CoSb,0.0
mp-601574,VH4(CO3)2,0.12220136375000035
mp-853133,NaLiFe2(SiO3)4,0.00489873699998089
mp-755231,LiTeO3,0.06163086162499986
mp-24926,Tl2CrO4,0.0
mp-1097370,Ca2MgGa,1.6293497953676468
mp-1074110,Mg4Si7,0.2243462191919208
mp-672360,Gd(C2N3)3,0.021010044435000097
mp-2728,MnIr,0.0
mp-1027141,MoWSe3S,0.02781413916666775
mvc-4383,TaZn2NiO6,0.1416855409999993
mvc-4057,SiSbO4,0.43888701763888616
mp-21858,UO3,0.08649048125000114
mp-867801,La2AgSn,0.023518780937499702
mp-612861,La(ReSi)2,0.0
mvc-12592,MgCr2O4,0.19186041000000031
mp-762811,Li2Ti2Mn3O10,0.07165581407169164
mp-690962,Nb24(CuS8)5,0.03356235594202861
mp-862773,TeI2,0.07001763666666827
mp-1097656,CaLaPd2,1.6876816325
mp-556198,Na2Si3O7,0.016542401458333522
mp-765700,V6O5F19,0.0271262230833198
mp-30336,Al4W,0.0
mp-33137,TcO2,0.0
mp-28853,LaAuO3,0.0
mp-504670,LiCa2Ge3,0.0
mp-1078159,Ce2Fe(SeO)2,0.021865280000001874
mp-763270,NiP4O11,0.0017679831249788336
mp-778629,LiV4OF11,0.0311937717647206
mp-774389,Li4MnV3(P2O7)4,0.002649999138299997
mp-961719,HfAsRh,0.4833545856410266
mp-770495,Li4Ti2Mn3Fe3O16,0.03315635634570492
mp-540440,FeP2O7,0.09541025097916744
mp-1078205,KRb2InF6,0.0
mp-28368,TlAuCl4,0.0
mp-25011,NdMnPO,0.18672865830166607
mp-504801,ErHO2,0.0
mp-20741,ReO3,0.005495520000000198
mp-568588,NdTlSe2,0.0
mp-755206,Ca2Ti6N2O11,0.07265892893142477
mp-779072,Li4MnFe3(BO3)4,0.003950067152778125
mp-1078834,LiRuF6,0.0
mp-1025510,FeCu2SiSe4,0.05483298937499992
mp-560340,La2Pd2O5,0.0
mp-717,B2O3,0.02553990633333214
mp-556165,LiB(CO2)4,0.10396022301020658
mp-1060962,TlC,2.53966779875
mp-1093706,HfScNi2,3.0850943712500003
mp-780310,Fe5(O4F)2,0.11222337270833103
mp-1073493,MgSi2,0.20729145634259533
mp-755419,Bi2TeO2,0.0
mp-850166,Li5Mn6(BO3)6,0.035931217690457366
mp-12226,NaNd(PO3)4,0.0
mp-1017350,Mg6SiMo,0.3109498648214286
mp-2991,Cs2UO4,0.0
mp-1098844,Mg30VCuO32,0.03530850640624994
mvc-9497,Mg(AgO2)2,0.1773517556547617
mp-753387,Li2Cu3F8,0.049477480384615184
mp-673808,Mg2SiO4,0.15393264107142812
mp-28771,Sr2FeN2,0.04559173146666407
mp-17827,Nd3SiAgSe7,0.0
mp-569060,Cs2PSe5,0.0
mp-39249,BaLaMgRuO6,0.020396785166641784
mp-4253,V(CrC)2,0.08428215464443944
mp-1008626,VTe2,0.01522615666666649
mp-636952,LiCS(OF)3,0.16225245944444475
mp-11140,Ho2Sb5,0.008043944285712534
mp-1009020,KCuO,0.8552255983333326
mp-1099113,CeMg14Co,0.11698052500000022
mp-1080537,K2NaVF6,0.025057554833336937
mp-770329,Rb5FeO4,0.05290545237499877
mp-771303,LiMnB2O5,0.08862737503483586
mvc-303,Sr2GaMo2O7,0.21763095182291534
mp-1029750,Sr3RuN3,0.0
mp-1532,NpNi2,0.1132235015833345
mp-1079630,Ba2TaInO6,0.0
mp-1690,TaS2,0.02078978333334014
mp-567532,Sr8(MnN3)3,0.0
mp-566656,Sr3V4CdO14,0.0017555703693181712
mp-25563,Li2MnPCO7,0.011449668611110296
mp-865546,Yb2AgBi,0.007019781770833511
mp-770120,Li3MnV(PO4)3,0.03581652181246575
mp-706585,CaP2(HO2)4,0.08067365816666694
mp-1005666,Sc3Al3C2O5,0.018065700192307688
mp-762838,Fe4O5F3,0.08542396015625098
mp-680232,K2AgC3(SN)3,0.06289680334226233
mp-29114,Re3Te4Cl5,0.0
mp-764259,Mn4OF6,0.0258460549999997
mp-764416,Li4Mn2(PO4)3,0.034120143690478784
mp-30991,Ba(IO3)2,0.0
mp-861893,Li2LaPb,0.0
mp-560093,Sr10Sm6Al6Si30N54O7,0.0014795521681358892
mp-675336,Pr10US16,0.03941002398148363
mvc-4398,Ca2TaWO6,0.10247073049999857
mp-1026599,SrMg14Nb,0.16511024031250046
mp-640147,Fe(NiO2)2,0.013162509285715274
mp-973824,LiHg3,0.014866197499999956
mp-763862,Li2VFe(P2O7)2,0.0010263295454313592
mp-625254,P(HO)3,0.1489938828945565
mp-1080491,PuGa4,0.3983603299999992
mp-979046,Tm2Co12P7,0.0
mp-50,Ta,0.0
mp-568373,Cd2Ru(CN)6,0.10236095001600096
mp-568333,K2SnBr6,0.01417826499999997
mp-782642,LiMn2(BO3)2,0.07290494507575218
mp-559303,MoS3(NCl4)2,0.05714910888619151
mvc-9998,CaLaCrWO6,0.06164563449999073
mp-571169,InBi2Se4Br,0.01234539260416634
mp-8007,LiUO3,0.0
mp-770023,Ag2Hg3,0.0759574756000001
mp-568171,Nd2Al,0.6283703299999992
mp-13148,Ca3N2,0.19496718675000047
mp-862779,Tc3Os,0.0
mp-17816,Na5AsO5,0.003379696818179845
mvc-10624,BaZnNiF7,0.002883037585717396
mp-531376,Li4Mn3Cl10,0.001571901470587278
mp-1021365,NaMg6Ti,0.19099476854166664
mp-1021404,CsMg6Sn,0.29401532878906256
mp-769429,Li4TiMn4(Fe2O9)2,0.1661072191129076
mp-997055,CuBiO2,0.038258477812493474
mp-555650,NdSeClO3,0.0
mp-859137,Li2Mn2Si2O7,0.03326405028845692
mp-771738,LiTiCrO4,0.0
mp-761961,Rb5(WO3)18,0.0
mp-8531,Lu5Ni19B6,0.0
mp-5632,DyAsO4,0.0
mp-767901,Li3CoPCO7,0.07254014884614701
mp-1033551,RbMg6GaO8,0.3958512799999987
mp-743731,K2MnH2OF5,0.0
mp-764715,V2OF5,0.041618420833333225
mp-989512,LiTl2InCl6,0.0
mp-989577,LiTl2GaF6,0.0
mp-1026980,Mo2Se3S,0.010328649166666535
mp-7258,K4SnO4,0.0
mp-7986,CaSnO3,0.1949885859999992
mp-1093610,LiY2Tl,2.287521661875
mp-20559,Ga3Co,0.0
mp-765047,Li(CoO2)4,0.04237443134615493
mp-1073438,Mg2Si3,0.27394279111110986
mp-676591,Li11Nb12O36,0.04208720592161441
mp-1030120,Te4MoW3Se4,0.03743195395833522
mp-775296,TiMnO4,0.05514793083333736
mp-764484,LiMnV(P2O7)2,0.009384689682526036
mp-867361,CeTlAu2,0.0
mp-768011,LiTi3VO8,0.0957946057692194
mp-762181,Li4CoSn3(PO4)4,0.0769520079910695
mp-557538,Na2Gd2MgSi4(O6F)2,0.0
mvc-11286,Zn(NiS2)4,0.10797953548076844
mp-767069,LiVSiO4,0.09156830580356876
mp-18889,VAg3O4,0.0
mp-1017515,Mn2CoAs,0.07995322437500096
mp-755420,SrSm2O4,0.05048394910714117
mp-25462,Li3TiPCO7,0.2806071821153875
mp-567252,Nb3Se12I,0.0007826376562496408
mp-761720,Li4Cr3Ni3(WO8)2,0.04401481920635053
mp-1078540,Ni6Ge2B,0.0
mp-561871,Co2As2O7,0.026050995795452003
mp-649595,CaMgSiO4,0.05849785107143024
mp-20726,SrCaSn,0.0
mp-505132,Ta3Te14Pd3,0.0
mp-558539,Cs2Ba2(CO3)3,0.0
mp-996957,Mg(CrSe2)2,0.004585401428571778
mp-1075901,Sr6Ca2Co5(CuO8)3,0.07290261671718756
mp-622190,Er2Mn3Si5,0.0
mp-862915,Er2Mg,0.0
mp-554824,La3RuO7,0.016776939545460227
mp-961727,TaGeRh,0.5726654866666651
mp-14237,YbBO3,0.1409825983333306
mp-567007,Cs2KCoF6,0.0
mp-863711,ErGaRh2,0.0
mp-557417,As2Cl3OF5,0.0
mp-540071,Mn4(PO4)3,0.025488341184217944
mp-1075196,Mg3Si4,0.3064200278571425
mp-1028060,RbYMg14,0.1620800862499967
mp-19051,LaCoO3,0.0
mp-998899,YN,0.4723109000000001
mp-20583,TlAg3Te2,0.24236459303571325
mp-556176,Li2ZrF6,0.05057652166666493
mp-1093989,Na,1.0720835949999998
mp-12492,CsLuCdTe3,0.0
mp-600054,SiO2,0.01730602416666649
mp-570680,Er(GeRh)2,0.0
mp-607540,O2,0.11235531874999972
mp-9837,Ba4Nd4Zn3PtO15,0.0
mp-721180,UH14(NO2)4,0.2340284013194225
mp-1036383,CaMg14TiO16,0.08663088718750077
mp-754399,Na4CuO3,0.039924699739581015
mp-566337,VAgO3,0.0
mp-1093710,YPtAu2,2.309327805000001
mp-1094254,Zr5Sn,0.06705248416666709
mp-777459,Li3FeF6,0.014963388333343984
mvc-6948,MoO2,0.2192362699999979
mp-775230,Li3CoPCO7,0.06780778615384264
mp-1115,PtSe2,0.0
mp-1026015,Te2Mo2WS4,0.12139554999999902
mp-22783,EuPAu,0.0
mvc-12939,TiO2,0.1524222241666795
mp-767251,Li2VSiO5,0.029840248055509555
mp-778914,Li6MnV3(PO4)6,0.01738237012501287
mp-771831,Sr2LaCl7,0.07066439274999947
mp-778709,Li2FePHO5,0.05959325700000129
mp-755565,HoBrO,0.0
mp-779794,Fe5(OF4)2,0.03935118000000415
mp-741677,SnCl8O25,0.14484097053921552
mp-763027,FeOF,0.07963410972222372
mp-24764,AlH36C12S6(ClO2)3,0.13806389641182992
mp-30389,HoPbAu,0.0
mp-861873,TaTlO3,0.1071076127500028
mp-1097602,La2MgAl,2.4778061606250006
mp-2360,CaGe,0.0
mp-510224,Ba6Mn5O16,0.0
mp-706281,NaH4CNO2,0.15917686944444487
mvc-6172,Bi3(AsO4)4,0.21432122986413127
mp-644739,LaGa6,0.0
mvc-3556,YFeO3,0.022334051999969518
mp-849352,V3CrO8,0.03736363442709133
mp-861894,Li2LaSn,0.0
mp-850919,Li2MnCr2O6,0.0344303104545709
mp-4982,SmBRh3,0.0
mp-753946,LiCoS2,0.010606050312496508
mp-631299,NbCrCo,0.9307331166666656
mp-30754,LaTlPd,0.0
mp-763435,V2PH10NO11,0.08700057750479928
mp-1036305,BaCaMg14O16,0.20138533625000046
mp-1036119,Mg14MnCO16,0.23035326417968616
mp-680576,Ti2Se,0.0047863555555549536
mp-866501,CsGe,0.020071884218749947
mp-780907,Mn2OF3,0.05105919062500064
mp-471,CdAs2,0.0
mp-1029940,Te2MoWSeS,0.0805406358333336
mp-1097130,TiVW2,4.672450033333332
mp-773434,TiNi5(PO4)6,0.0799524059027652
mp-608081,Rb3Pb4Au,0.07533382565104141
mp-14535,In(PO3)3,0.0
mp-22866,HoBi,0.0
mp-30599,Ti2Cu3,0.043843067200000085
mp-696987,CsH(CO2)2,0.052192058072912495
mp-676459,Ca2LaF7,0.08306941416666724
mp-28724,Gd2CI,0.0
mp-631946,SnOs2Ru,0.6636394841666675
mp-11160,SmSbIr,0.0
mp-556741,KNaThF6,0.0
mp-6137,Mg4P6SN12,0.0
mp-556842,CuH12(N5O4)2,0.2979910155694192
mp-11021,GaAuO2,0.006830938124999797
mp-763334,Li4Mn5Cr(PO4)6,0.06854390237501651
mp-744954,NiH12(NO6)2,0.03375955342592628
mp-765253,MnF4,0.07786790275001021
mp-1025291,Ti(NbSe2)2,0.0317198492857127
mp-31577,K3CoO2,0.0
mp-8188,KScO2,0.0
mp-1021668,In3Sb,0.0858403124999998
mp-1774,ErB2,0.0
mp-849990,LiMn2(BO3)2,0.07270416318181461
mvc-11613,CaFeF5,0.0007749332142896747
mp-1028025,BaYMg14,0.12020885687499995
mp-540988,Cs2FeO4,0.0
mvc-7827,MgMnBiO5,0.16987952421875008
mp-645282,Al3Bi5Br12,0.020031199374999968
mp-1099694,SrCaCo2O5,0.019215555416713492
mp-568531,Bi2Pt,0.0
mvc-14527,Pr(NiO3)2,0.3039241806018538
mp-1094009,YAgO3,0.6302311879583335
mp-3545,CeMgSi2,0.0
mp-1035048,Mg14CoBiO16,0.1350021176953149
mp-963,ZrO2,0.10413902083333504
mp-1026610,RbBaMg14,0.19688458062499992
mvc-3110,Zn(WO2)4,0.2340672686538561
mp-1079544,KTl,0.07460746416666675
mp-1018149,ScCu2,0.0
mp-1073021,Mg2Si3,0.21227788911111034
mp-559284,Rb2Al2B2O7,0.0
mp-1097715,La2Cr2O5,0.1951113800000001
mp-1095127,USbRu,0.0
mp-865868,LiZrRh2,0.0
mp-674328,Zn(InS2)2,0.013174107678572078
mvc-1332,BaV4O7,0.3225481691103642
mp-1079897,SmAl4,0.013225890000001073
mp-1099572,MnInF3,0.024096454999998684
mp-697830,Zn(FeO2)2,0.2252560441558451
mp-767940,Li2VF5,0.0065138908333226535
mp-13313,ScTlSe2,0.0
mp-582924,Zr6Fe23,0.00560064827586082
mp-778222,Na3VO3,0.07294150714285674
mp-29432,NaScCl4,0.0
mp-1027971,LiMg14Zn,0.02721619062500058
mp-557959,Cr3O8,0.04581717749999914
mp-31142,YbBiAu,0.4387166516666667
mp-674521,Dy2TiO5,0.126342817874999
mp-851280,Li3Mn4(BO3)4,0.03596141373186512
mp-555904,NaSmGeO4,0.0
mp-570486,NbP2Se2Cl5,0.0
mp-1093587,La2HgAu,2.13833632625
mp-1098727,YMg30MnO32,0.06390267757062595
mp-12004,Er2Al3Si2,0.0
mp-13513,SrNiGe2,0.0
mp-654374,Ba2YTlCu2O7,0.012852161057687715
mp-21502,BRh2,0.07554108541666071
mp-1026439,Mg14CdGa,0.017734695312499937
mp-768797,Li3Bi(BO3)2,0.07482715291666686
mp-24407,CdP2H6O7,0.012950315364583357
mp-1026760,NaLaMg14,0.09426476765625004
mvc-1123,BaAlCu4O7,0.15449548014422998
mp-779825,LiV2(OF)3,0.09751876658951276
mp-10378,Cs3Sb,0.0
mp-32310,Ba3Ta2NiO9,0.0
mp-771095,Mn3Cr3(SnO8)2,0.08219907739583299
mvc-5043,Zn2CoWO6,0.08549763250000009
mp-769397,MgSO3,0.03658874196377671
mp-1029264,Te4MoW3Se4,0.03671043812500141
mp-19011,Ba2NiTeO6,0.0
mp-1038955,CeMg2,0.01582199055555611
mp-770687,LiCr2O5,0.09433252989584062
mp-1093996,ZnHC4O3,0.1902631524305569
mp-735063,H7CSN3O4,0.03211423937954816
mp-1080346,CeSe2,0.03987386236111234
mp-600007,SiO2,0.013264874999999066
mp-1020670,SrB4O7,0.00892609592591498
mp-1028005,Mg14ZnMo,0.10818003973750034
mp-11155,NdMgGa,0.0
mvc-6542,Zn(CuO2)2,0.10875411928571402
mp-556400,Cs2K2TeO5,0.0
mp-1008642,UC2,0.6472039400000007
mp-705293,Li3V2(PO4)3,0.024302296750003727
mp-753792,Ce5Sm2O13,0.03533544393749821
mp-30624,Dy11Sn10,0.0
mp-862902,PmDyMg2,0.0023036250000001424
mp-24659,UH3,0.006155516562500018
mp-770957,Be(CoO2)2,0.012415022321433431
mp-667638,Sr10Cu5Bi10O29,0.0675454415277672
mp-672346,RbVI3,0.02238597733333325
mp-1095930,AlSiTc2,3.3593931502500007
mp-561096,Yb2PrDyS6,0.1357821323749988