mpid,formula,e_hull
mp-14935,P3RhO9,0.0
mp-1017546,ZrN,0.33944154000000104
mp-25192,La2(WO4)3,0.01560562867647164
mp-771802,Li4MnV3O12,0.0917642284437532
mp-1018085,CoSnRh2,0.06539797062499986
mvc-10050,MnPO4,0.13099391145834186
mp-7726,Rb2UO4,0.0
mp-567504,CrCl3,0.0014464741666699865
mp-1038368,HfMg30CO32,0.1701026285156253
mp-1093949,Ba2TlAg,1.1782278143750005
mp-762816,Li3Fe(PO4)2,0.06742807324404865
mp-41,Zr,0.08429734999999994
mp-768308,LaAgO3,0.03571613995833367
mp-707095,YHSO5,0.0031134087499760103
mp-977556,MgScCd2,0.0
mp-505142,Np(SiPt)2,0.0
mp-566560,PWO5,0.06907651982144357
mp-11959,CaSn2Rh,0.0
mp-24279,AlH36C12S6(IO2)3,0.10785508114815913
mp-972099,YbMg3,0.047462939374999014
mp-756095,NaCu3O4,0.06302883375001668
mp-1097924,MgSb,0.22377902083333368
mp-1025311,CdAsPt5,0.0
mp-626074,Al(HO)3,0.037943766071429685
mp-19243,VSb2O5,0.0325360124609384
mp-1095094,SnI3,0.14341352401041618
mp-763534,Li2Co2SiO6,0.18996246299999608
mp-10172,Na,0.0
mvc-16811,LiMn2O4,0.07213622406888033
mp-28616,NbTe5Pd,0.0
mp-5126,ZnSO4,0.0
mp-557521,PH8C2NO4,0.08389447601562683
mp-763606,Li3P3(WO6)2,0.04843820599999837
mp-999305,PrRh,0.0
mp-6578,Ba3B(PO4)3,0.002062523026314268
mp-32692,Pr2S3,0.013190344749999916
mp-781958,V4O3F5,0.059005964583336734
mp-3719,Rb3NbS4,0.0
mvc-4236,Mg3Ag2(GeO4)3,0.16471911385416682
mp-2296,Ni3P,0.0
mp-780396,SrCa2I6,0.036210322777778366
mp-1078541,BC2N,0.6380904525000002
mp-567146,Si3PH27C9BrN2,0.1152183035229788
mp-647900,TlAs3PbS6,0.0
mp-1043,HfV2,0.02887552333333332
mp-773673,LiFePO4,0.06888603821428507
mvc-1926,Mg2Cu9O13,0.10309920812499483
mp-770338,Li2MnPCO7,0.028476293611110037
mp-1096917,CrN2,0.3750047600399995
mp-558754,Sb4OsC6(O3F11)2,0.08316143342948568
mp-569272,Cs2Se,0.07516363333333276
mp-28198,RbInI4,0.0
mp-997618,BSb,0.3693920341666663
mp-3539,NbGaNi2,0.010130344567756744
mp-569175,ZrCl4,0.0
mp-760477,SmBO3,0.060809067500001035
mp-1094341,MgTi,0.19152474791666665
mp-554591,K2Ca2(CO3)3,0.009940002812497184
mp-11490,Li2ZnSn,0.03467044569444466
mp-567377,Ba(AlSi)2,0.051746656500001535
mp-763468,LiV3P3O11,0.08058796040205074
mp-704637,Nb12WO33,0.007320628260901073
mp-11764,HoSnPd,0.0
mp-559560,Nd2Ti3(ClO4)2,0.0
mp-2924,Ho(SiNi)2,0.0
mvc-12526,Mg(NiO2)2,0.011281140714285877
mp-1076897,Ca7MgMn8O20,0.08533641583333385
mp-542583,EuTe,0.0
mp-1079872,PrFeSb2,0.11387243558035733
mp-540454,Li3FeP2O9,0.09651273850000576
mp-20483,Pb,0.0
mp-557122,RbAu(SeO4)2,0.0
mp-765124,LiV2F7,0.06394243974998925
mp-1096116,LiGa2Ag,1.34520901375
mp-566566,Ga2Te2MoO10,0.0
mp-1093895,InGaPd2,1.6756106592361109
mp-1027789,Mg14CrFe,0.14981446312500024
mp-605835,Nd4MgRu,0.0
mp-767442,Fe3CuNi2(PO4)6,0.057451238376738274
mp-556177,Cs2Cu2Si8O19,0.0
mp-686129,Li5TiN3,0.0
mp-764588,LiFe2(BO3)2,0.25037524971593417
mp-568927,AgI,0.1045647074999998
mp-1079270,Tm2NiSn6,0.0
mp-721342,MgH12(SO6)2,0.7414839745611825
mp-31857,Ti2FeO5,0.0
mp-566014,FePO4,0.004120992083333164
mp-753153,Dy2CO5,0.0
mp-559187,NaVF4,0.0
mp-11820,BaNa2,0.0
mp-1095324,U2In8Rh,0.0
mp-680308,Re(Se2Cl3)2,0.0
mp-769717,Li2MnPCO7,0.011033554861110241
mp-761320,Li2VP2O7,0.07634978255208312
mp-1018030,Sr2SO,0.22345076250000065
mp-707396,Na3As3(HO5)2,0.1506276347222162
mp-1075576,Mg5Si6,0.2448179077272723
mp-565377,KTbCr2O8,0.0
mvc-6014,CaTi2O4,0.10668702517857652
mp-762011,LiCrCoO4,0.03847133845238115
mp-1039667,RbMg30CO32,0.20310876776366985
mp-15543,NaLiZr(Si2O5)3,0.0
mvc-6112,Zn(MoO2)2,0.20406873964285488
mp-770426,Ho(ClO4)3,0.01833702937500004
mp-554560,Li4Be3P3BrO12,0.0
mp-1601,TaRu,0.0
mp-1017097,CsMg6Mo,0.4455273487499998
mp-32099,Mo4P7O24,0.0
mp-776411,LiCoPO4F,0.051602817031249686
mp-746681,VH8C2NO3,0.1277718978333331
mp-1032264,HfMg6CuO8,0.3328701239062504
mp-764989,Li4V3P8O29,0.05051842825757991
mp-694886,Ca11Cr7O28,0.03575488260869797
mp-767910,Li3MnPCO7,0.06255077711537371
mp-532156,Hg7(Sb2Br3)2,0.0489416830735292
mvc-2992,Ba2YTlNi2O7,0.1509446143269262
mp-1095976,Mg2GaCu,1.4849506046141976
mp-684642,SN,0.323088964578611
mp-11396,NdGa2Ni,0.0
mp-603254,PH9AuC3S3Cl,0.054570111398810184
mp-1076157,Mg2Fe2O5,0.18454278000000104
mp-1033648,HfMg14BiO16,0.3633039377343765
mp-690601,NdTi3Fe(CuO4)3,0.054837945750001886
mp-2874,In2Si2O7,0.004806763636364232
mp-1079133,LuZnSn2,0.006140674558823278
mp-773956,Na2Li(NiO2)3,0.03237086020833324
mp-1095454,HoVO4,0.03667410833333306
mvc-16214,CaFeO2,0.07505221624999958
mp-1029686,Sr3OsN3,0.0
mp-570998,NaLi2N,0.0908064499999992
mp-767011,Li7Mn3(SiO6)2,0.09531325322916297
mp-23457,PBr2N,0.0037993379166660897
mp-1071473,TbGe5,0.1835772327777772
mp-1097552,LaScTl2,2.1090892025000003
mp-769096,MnP4,0.0546232556666677
mp-765023,Li5Mn(CO3)4,0.047463914602264616
mp-775710,LiCrPO4,0.0613253784523824
mp-720965,Al2H18SO15,0.3001269525694443
mp-45,Ca,0.0
mp-560223,K2Se(SO3)2,0.038335453783966855
mp-636731,Zr(MoO4)2,0.0005169854545510333
mp-977361,ZnFeRh2,0.0
mp-850985,LiFeP2HO7,0.06281292833333563
mp-1026912,Te2MoWSeS,0.09537200083333452
mp-550805,LuBi2ClO4,0.0
mp-1063156,ErCd2,0.4483737700000001
mp-22498,CrSb2,0.09336516166666796
mp-715515,Cr3O8,0.12093065795454636
mp-1040095,LiMg30WO32,0.024508973730468675
mp-21781,Sr(InS2)2,0.0
mp-972410,TmLuPd2,0.007665147500000025
mp-631349,ZnTcMo,0.7374795366666671
mp-1100191,YMg5,0.06017811416666685
mp-27828,Cs2TiCl6,0.0
mp-850155,NiH12S2(NO5)2,0.051881684876545535
mp-29612,RbEu2I5,0.0
mp-13449,YbGa2,0.06335427833333274
mp-764248,Li2VCr(P2O7)2,0.0009417063636458778
mp-556120,RbTl(SO4)2,0.0
mp-976244,LiMg,0.01758062833333351
mvc-2601,CaCo5O7,0.12128370423076085
mp-568726,Mo(SeCl6)2,0.01410951692621509
mp-753070,Sr3Rh2O7,0.008596342812496438
mp-557143,Tl2Cu(CO3)2,0.0
mp-1020159,Na2Si(S2O7)3,0.0
mp-1076208,K5Na3Nb4(WO5)4,0.24544542173611106
mp-19465,HoCo(BO2)5,0.011828679509788387
mp-1095713,CuAgPd2,2.2404836950000004
mvc-9229,CaTiNi(PO4)3,0.038960851923615536
mp-975554,Pu3Sc,0.2354525873437492
mp-7961,Sr3SnO,0.0
mp-763210,Li9Mn4(BO3)8,0.09181584942012576
mp-574334,Lu2CoB6,0.0003071130555492019
mp-686174,Ti24Ga5S48,0.002936277773652129
mp-1020112,Mg2SiO4,0.2126944696428561
mp-542245,Yb2PbAu2,0.0
mp-777004,Li9Fe7(PO4)12,0.07436154146381302
mp-605027,Mg5Pd2,0.1582520325000023
mp-21455,EuAlO3,0.0
mp-1075102,Mg3Si4,0.2667719733333329
mp-776690,Mn3(O2F)2,0.06071582166667078
mp-1075953,K5Na3Ta5Nb3O24,0.014202237499999269
mp-775827,VCrO3,0.008950394124997985
mp-974856,Rb3Re,1.5472920762500006
mvc-4204,Ca2TaAgO6,0.05199869832142756
mp-8756,KLiSe,0.0
mp-1017062,Mg6WC,0.5812153350000004
mp-631473,KTi2Bi,0.920770035555555
mp-573204,Cs2KBiF6,0.0
mp-31845,LiFe2(PO4)3,0.06901032854167344
mp-29794,Ba2PdF6,0.0
mvc-12009,MgCr2F12,0.007937867999998183
mp-862670,Sr3Co(CN)3,0.0
mp-1037511,Mg30CoCuO32,0.01172815437500674
mp-17559,Y2TiO5,0.0
mp-1080445,V(NCl3)2,1.0492963617153093
mp-777473,Li5Mn8(BO3)8,0.05814719068516538
mp-978911,TbYHg2,0.005030899999999949
mp-18924,Sr3(FeO3)2,0.0
mp-9938,Hf2Si,0.0
mvc-7845,VZnBiO5,0.04941669765625002
mp-866196,Li2PrIn,0.0
mp-762415,Li4Mn3Nb3(FeO8)2,0.09450939165177807
mp-762506,SrNiO3,0.03548017414814009
mp-542704,CsHCO2,0.06393167591666504
mp-1028033,KYMg14,0.10719322249999874
mp-1030450,Te4Mo3W(SeS)2,0.05982771333333493
mp-676813,RbAg4I5,0.0444239011250005
mp-1076881,Ba3Sr5Co3(CuO4)5,0.08552924776619619
mp-29631,Li11Ge6,0.006354001911764939
mp-5914,Li3BN2,0.003096364166664145
mp-1071868,KN2,1.1622979127777793
mp-28118,AlSbI6,0.002750408749999877
mp-864837,Nd2CuRu,0.0
mp-972522,SmTmZn2,0.007151594999999844
mp-863377,Li2SnP2O7,0.08575524416666003
mp-1016359,SrMg6Bi,0.16772691699999998
mp-1079203,NdGe2Pd,0.0
mp-767800,Li2Mn(PO4)2,0.04653256041666687
mp-1037160,Mg30TiCoO32,0.05461587902343812
mp-1025388,YbCl3,0.07125468543500046
mp-2843,SnF2,0.0018686058333337032
mp-561514,NaSrB5O9,0.0
mp-1016108,TiZnN2,0.0
mp-674522,K6U4O15,0.1064340766666767
mvc-15176,CaLa2BiO6,0.07873599574999979
mp-746688,K4MnH6(S2O9)2,0.0015396994318201962
mp-773269,MnFe3(PO4)4,0.015386365833359504
mp-1062817,TcN2,0.7205784803177782
mp-1026492,Mg14CrGa,0.07900430718750018
mp-764699,V6O7F5,0.02866914388890507
mp-3622,Na2PdF4,0.0
mp-561149,Ce2O3,0.0378992458333336
mvc-6941,CaCoP2O7,0.011925967499999857
mp-16624,ErAl7Au3,0.0
mp-10989,KYbSe2,0.2148635470833331
mp-770149,Li2CrO3,0.07175328666666925
mp-570572,C3N4,0.1382531839971417
mp-765321,Li2VF5,0.049462719270822575
mp-10899,AlVNi2,0.0450264624999992
mp-27871,RhBr3,0.0
mp-21231,FeSn2(CN)6,0.1209064668733335
mp-771896,Li5Mn8Fe11O32,0.19666010177456528
mp-554081,Ca2PClO4,0.0
mp-685394,Eu2Al42O65,0.13628218000000114
mp-766343,Ba2CaI6,0.03755350000000002
mp-551826,NbTlBr4O,0.0
mp-999178,SmFeC2,0.0
mp-559628,NaNp3F13,0.058526083774508735
mp-28477,Sr(ClO3)2,0.0
mp-30529,B5H11,0.02229749392045477
mp-11980,CsNbF6,0.0
mp-1093696,Ca2MgAl,1.6879774297916683
mp-758842,NbH14C4NO14,0.04793137691176685
mvc-5718,ZnFeP2O7,0.03566504028408701
mp-1022537,LiMg6Zr,0.11039597624999953
mp-676815,OsClF8,0.06806066412500034
mp-763681,LiV2(CO3)4,0.0854377602631704
mp-1013706,Sr3BiSb,0.4593346146666666
mp-781062,LiMn2(BO3)2,0.07606579749999476
mp-773747,Li3Fe4(BO3)4,0.19650876021740427
mp-1021312,Mg6TiGa,0.15286721000000014
mp-644226,BaH2C2O5,0.05620948049999885
mp-865461,LuZrCo2,0.0
mp-31038,CuSe2Cl,0.0
mp-764149,Li5V2Cr2O8,0.09053336436274152
mp-744774,CoH16RuN10ClO10,0.20357417743461687
mp-866500,Ce3MnAlS7,0.004435182256943726
mp-775662,LiNb7V12O48,0.07557750562500054
mp-1029920,Y2(CN2)3,0.0
mp-1028980,Te4MoW3(SeS)2,0.06678231562500159
mp-756672,Li4Si4Bi2O13,0.08194815880434891
mp-764133,Li3FeNi3O8,0.06554170933334014
mp-851266,Li4V3P8O29,0.04751682450758032
mp-504659,Hf2P,0.0
mvc-15728,Mn2ZnN2,0.6362815490000004
mp-15787,KYbS2,0.2742840645833331
mp-1017385,Mg6CdSi,0.11137411262500008
mp-570040,CuH5C5NCl,0.2925528847596173
mp-1027448,TeMo2Se2S,0.04072259999999872
mp-30332,BaAgBi,0.2807841353846152
mp-777070,Li4V2C4SO16,0.06657240814816134
mp-861634,NiH16(ClO8)2,0.015294427285714285
mp-14115,LiRhO2,0.0
mp-961653,FeSiW,0.03419625583333463
mvc-15234,Y2Cr3O9,0.11723437500001133
mp-769128,Dy2Sb2O7,0.046632882727268836
mp-23386,Sn2SI2,0.0
mp-768242,PtO3,0.08977050093750005
mp-559833,Na2YC(OF)3,0.005256646624999918
mp-762626,LiFe(PO3)3,0.052164079107148716
mp-746672,NiP2H2O7,0.0
mp-980426,TmAlAg2,0.0
mp-775978,Na4Sb2C4SO16,0.07311388879629542
mp-864775,HoAgHg2,0.0
mp-646426,U2InPd2,0.16148725888888915
mp-762407,Li6Mn5O10,0.03761650468253208
mp-1056027,K,0.47897662
mp-555848,H8C3S2,0.06705277552197941
mp-779768,Li32Ti11Cr5O48,0.01162409802085218
mp-778772,Li3Cu3(PO4)2,0.09295709171875187
mp-555095,Ba5Re3NO18,0.0
mp-553308,CsNdO2,0.0
mp-21227,U3TiSb5,0.0
mp-1038975,MgCd,0.07864007250000027
mp-561834,Cs4CO4,0.21454582444444625
mp-18861,BaNd2Mn2O7,0.0018734175297296927
mp-999126,NaTbS2,0.0
mp-4475,Tl(CoSe)2,0.04736083120000068
mp-571053,Al5Mo,0.0
mp-999306,PrAu,0.0
mp-570351,Na2Sn3Au,0.0
mp-624397,SiC,0.03136236719696939
mp-761582,LiNiP2O7,0.06906296339015494
mp-715664,V4O9,0.10028806711538253
mp-568523,LiBH2,0.5130656560606061
mp-19203,BaCo2Si2O7,0.0
mp-623066,GaPt3,0.015465676249999838
mp-569179,Ni3Mo3C,0.049016545714284376
mvc-5656,CaCoAsO5,0.04592245882809909
mp-1026676,CsNaMg14,0.20300480429687529
mp-15862,GaMo4CS8,0.4833489728316307
mp-540294,Cr2(PO4)3,0.05711111040441352
mp-23425,Cs2PbCl6,0.0
mp-767208,Sb17S27,0.04664775804332244
mp-764576,Li5Fe8(BO3)8,0.044388832930558834
mp-960,B2Mo,0.16001012833333306
mp-1039535,Ce2Mg,0.07111131694444595
mp-558396,Rb2Te(H6O5)2,0.0
mp-771384,Lu2Co2O7,0.02070323034090915
mp-754630,BaSrI4,0.07102231895833322
mp-1031347,KLaMg6O8,0.31152748312500034
mp-1018105,Zr2Zn,0.0144365999999998
mp-698361,CuH36C8(N5O4)2,0.08716629313492064
mp-626256,H3NO4,0.0
mp-20880,NdAgPb,0.0
mp-1016152,NaMnO2,0.07327167562500225
mp-554576,Rb2In3F11,0.0
mp-14050,Ca3Ga2(SiO4)3,0.011824617124999827
mp-632812,KH4F5,0.02071896200000012
mp-1098966,Mg30TiSnO32,0.10715657425781266
mp-763105,FeOF,0.054921610000001835
mp-1098998,Mg14AlCrO16,0.10907431625000097
mvc-9151,CaCr2(PO5)2,0.03090621985416675
mp-20594,CeS2,0.01124245250000211
mp-769947,K4TiO4,0.007043536666662575
mp-1023299,LaMg6Al,0.14412383953124985
mp-569775,ZrAl3,0.019700826250000247
mp-581150,Cs2Te10Mo9,0.0
mp-675568,Co2SbTe,0.3958765429166666
mp-827,KN3,0.0
mp-540822,Cs3Zr2I9,0.0
mp-24370,H5N2ClO4,0.4495698638294439
mp-861487,PrHg3,0.0
mp-759962,PH5NO3F,0.0
mp-974743,Rb3V,0.9186202825
mp-685249,K2OsO5,0.007041241875000105
mp-752580,RbNO2,0.0
mp-1097107,HfZrHg2,2.7404168137500005
mp-580102,Gd2Ni17,0.013315192894737926
mp-764709,LiFe2(BO3)2,0.05881958357957018
mp-1016239,HfMg3,0.17227111625000013
mp-865212,Fe3Re,0.0
mp-651406,MnInFe(CO)9,0.6059581287103164
mp-781959,NaCo2O3,0.06466458250000072
mp-11329,P2W,0.0154470316666675
mp-557354,Tm2Te4O11,0.0032565047794115287
mp-16055,KLi3Zr2(Si2O5)6,0.0
mp-560489,Gd(IO3)3,0.009098678653857384
mp-767124,Li2MnO2F,0.08100577208332993
mp-1021505,Ce(P3Os)4,0.0
mp-767447,LiVSiO4,0.05952922723214105
mvc-2203,CaCo(PO3)4,0.0
mp-27566,K3(PtO2)2,0.0
mp-761505,Li6V3P8O29,0.02544600610508585
mp-721012,Na13Ca7S12(ClO16)3,0.017417505843372542
mp-866376,TiMn2Ge,0.0
mp-556038,Ba3In(BO2)9,0.008339603602154355
mp-18112,Sr2Ge2Se5,0.0
mp-1097593,CuSbPd2,2.0567514525000004
mp-1077234,Mg2Ru,0.2355678737499991
mp-5173,Ce(SiAu)2,0.0
mp-1057273,Pb,0.06949821000000034
mp-1034659,NaMg14SiO16,0.1469805049804691
mp-770157,Li5Mn2P2(CO7)2,0.04401463773333703
mp-2522,LuHg,0.0
mp-28924,Ga8BIr4,0.0
mp-1410,DyN,0.0
mp-759131,LiCu3F10,0.017865595892856856
mp-1070408,Gd(SiIr)2,0.0
mp-4903,Tm(CuSi)2,0.0
mp-765202,MnCr3Te2(PO4)6,0.08822743680555245
mp-1021478,SrMg6Ti,0.16238217430059532
mp-765267,Li3Fe(BO3)2,0.013229034583328136
mp-37747,LiHS,0.0008495562500003827
mp-10054,ZrAs,0.06700246249999964
mp-867278,DyPaTc2,0.0
mp-554120,DyCuS2,0.0
mp-652101,Zn10Fe(B4Rh9)2,0.039840902966219005
mp-1057787,KP,1.0091878925
mp-21111,NdSnPt,0.0
mp-1894,WC,0.0
mp-861640,Ti2AlRe,0.0
mvc-13841,CuN,1.3214843363100002
mp-1522,FeS2,0.0
mp-1023143,CaMg6Cd,0.062415776250000166
mp-985443,Ag3Hg,0.027281532500000427
mp-11755,Lu6Sb2Mo,0.0
mp-1096478,CaScHg2,1.7311961025000002
mp-16326,DyPPt,0.0
mp-770091,Li4AlCr3O8,0.008110377031250948
mp-20608,Tb2In,0.0
mp-697840,Ba3La7Ti3Cr7O30,0.024624249249995955
mp-561501,CoSnF6,0.0
mp-755515,Lu2TeO6,0.0
mp-363,NbGe2,0.0
mp-776496,HfMnO3,0.034400803500004073
mp-1093802,LiAgPd2,1.9562272275000008
mp-558288,CdAs2S2(OF3)4,0.03822381047618428
mp-1021703,Mg6NiBi,0.14465277749999972
mp-1095783,Zr2RePd,3.7156642619999953
mp-4495,KLiTe,0.0
mp-683971,Sm15(Ga11Ni13)4,0.216043251192918
mp-572758,ReS2,0.0
mp-504676,AlTl2F5,0.0033080556250011392
mp-1739,Hf5Ge3,0.0033089681250011442
mp-974638,NdErZn2,0.013194732500000141
mp-547522,BaPbO3,4.226400000106878e-05
mp-11556,PuRu2,0.3761049960416667
mp-644763,Zr4Fe2H2O,0.4133283892777769
mp-14912,La4Si2Se3O7,0.0
mp-975142,RhI,0.4441748887500001
mp-561154,La(BO2)3,0.015486874799996997
mp-782713,Li3TiCr2O6,0.05776768972222435
mp-698018,LiAlSi2H2O7,0.09234633036324613
mp-865005,DyI3,0.0
mvc-8786,Ca(BiO2)4,0.22587544028846995
mvc-9616,CaPrCr2O6,0.017549027500002982
mp-37710,TlSbSe2,0.3088716368749997
mp-672375,ThNiSn,1.0022402566666662
mp-1057979,IN,1.88155843125
mp-850108,Na3CoO3,0.0970518178571389
mp-775129,Li2Cr3(FeO6)2,0.056579253991227325
mp-1012879,Li3Cr2(GeO4)3,0.14106352966664115
mp-775323,Li4Mn3CuNi2(PO4)6,0.10002458906249513
mp-867199,Pm3Tl,0.0
mp-851212,Li9V6(P8O29)2,0.045358669597377776
mp-1097313,LiSnPt2,2.07100254625
mp-25488,Li2CoPO4F,0.051554425138880866
mp-1079326,GdClO2,0.4305123252499978
mp-15379,K2SiO3,0.0
mp-680372,C,0.4058335606666663
mp-29537,Cl2O,0.0
mp-23535,K2ZnBr4,0.0
mp-972822,SiBO3,1.9149819636666656
mp-767300,Li2Co3SnO8,0.10739861232142013
mp-677193,Mg3BH2O5F,0.004742174843751279
mp-573702,CsTlBr4,0.0
mp-1014311,C3N,4.212365333780001
mp-4893,Hf2SnC,0.0
mp-865597,NdPbAu2,0.0
mp-25656,Li3PWCO7,0.27445872681318484
mp-774102,LiNiO2,0.05369382124999955
mp-17165,Cs2NaCr(CN)6,0.1207891427604162
mp-775687,Li3Fe2F9,0.07370875559525203
mp-504640,U3Ni3Sb4,0.0
mp-20551,GaCo2Ni,0.08473553192307648
mp-17037,Rb2Ti(SiO3)3,0.0
mp-645592,Nb3(BiO3)5,0.017335027391305324
mp-762227,V(CO3)2,0.08449749388888605
mp-765841,LiV2O3F,0.10717500267856828
mp-27811,Li2Te2O5,0.0
mp-32884,Ag2S,0.005777980000002182
mp-24433,KHSeO3,0.015188212499998244
mp-1093942,Ta2CuOs,4.099995993750001
mp-17337,RbAsOF4,0.0
mp-1094476,MgZn3,0.056276982113095515
mp-1062030,TiS2,0.005071996666648815
mp-782664,Ti3MnO8,0.09425235750000027
mp-20745,Pb,0.027479540000000302
mp-1076603,La5Sm3Cr8O24,0.11198444632812254
mp-2478,NbSi2,0.0
mp-764362,LiNiF3,0.019122963999998355
mp-13467,Ce(GePd)2,0.0
mp-962078,CaCdSi,0.2382067241666657
mp-20135,Na2Ca2Ta3O10,0.05977358072549066
mp-33255,Ni15O16,0.07145702951613142
mp-505498,PH8BrN4,0.6339742922023808
mp-1328,SrRh2,0.0
mp-853178,Li5V3P8O29,0.03291834001850358
mp-6824,Na2ZrSi4O11,0.0
mp-565260,Nd2W2O9,0.0
mp-1098849,Mg30TiCuO32,0.05847683589843732
mp-697762,LiCrPO5,0.03420892165624245
mp-1025137,NpNi5,0.0
mp-775543,SnPHO5,0.0
mp-20171,Pu(SiNi)2,0.0
mp-976600,LiHf2Tc,0.014174171249999644
mvc-8885,MgV2(PO5)2,0.055813333555576605
mp-1027859,BaMg14Fe,0.24796105
mp-755779,CaLaI5,0.07134981714285571
mp-775207,Li4CrP6(H4O11)2,0.06030335935740984
mp-673129,Sn(PO3)3,0.056085466442293175
mp-976313,K3V(SO5)2,0.01928755100963553
mp-675214,Rb2Bi3F11,0.044640068281250216
mp-1098661,Mg30MnNiO32,0.006550882656250145
mvc-8741,ZnSi4WO10,0.18906780385416688
mp-1022098,Mg6CuW,0.3468104681249997
mp-1080493,Y3Au2,0.031686222999999465
mp-984756,CsMgO3,0.4654850959999983
mp-1095719,YGaPd2,2.09432708
mp-764828,LiMn2OF3,0.06912560499999998
mp-14294,Ba2YbSbO6,0.0
mp-1018642,Y(CuS)2,0.2979225345000014
mp-569989,Nb2C,0.0
mp-766135,Sr6Bi2O11,0.12219773728070127
mp-779457,Ge2N2O,0.1055756695000003
mp-770765,Na3MnBAsO7,0.01820944698836336
mp-773705,Na2LiFePCO7,0.021077894615383563
mp-1032516,Mg6TiFeO8,0.20758202109375026
mp-1065609,GdTlTe2,0.0
mp-31479,Ca3(GaPt)2,0.0
mp-9486,K2AlF5,0.0
mp-768121,NaSbPCO7,0.0982854090909342
mp-866111,Ho2IrRu,0.0
mp-766798,LiMnOF2,0.07752150275000957
mp-9797,K(SbSe2)2,0.000611596529017433
mp-5109,Y(NiGe)2,0.0
mp-17183,Na2BeSiO4,0.0
mp-1080438,SrAgTeF,0.0
mp-1934,LiZn,0.0
mp-36912,Pr2CdS4,0.09704099321428483
mp-17512,Zn(AuF4)2,0.0
mp-861577,Li2VO3,0.024011826250005967
mp-649632,KCo(CO)4,0.3432344850833351
mp-775315,Si6Bi9O26,0.05271352804875384
mp-865404,Tm3ReB7,0.0
mp-558378,Pd3S,0.0
mp-1025095,CeCo2B2C,0.0
mp-744629,CoH18C4N8(ClO)4,0.016979019499391512
mp-559327,Na2CoGeO4,0.0
mp-684860,Sm39S56,0.024073761157894502
mp-636598,Rb2ZnBr4,0.0
mp-28288,BaGe2O5,0.05373216434028194
mp-8995,Cs2NbF6,0.0
mp-3128,ErCoSi2,0.0
mp-11511,LaAlGe,0.0
mp-757974,LiSn(PO3)4,0.08385594094906422
mp-1074738,Mg2Si,0.1729373653333357
mp-762582,LiFe(PO3)3,0.06677296696428847
mp-976724,Hf(VH2)2,0.00017062333333317525
mp-645655,TeMo3Se7I6,0.002464559053309223
mp-651217,As(IF3)2,0.3611844016666659
mp-985540,Ac3La,0.033319076875000235
mp-541728,Si2Ag6O7,0.04591478666666582
mp-1084808,YbAu,0.0
mp-1097443,Nb2VRu,4.207042199166668
mp-770243,Li3Mn2P2(CO7)2,0.03192584978261248
mp-1094057,Si,0.5005090722222221
mvc-9926,LaZnCrCuO6,0.19388471440000465
mp-9298,Sr(AuO2)2,0.0
mp-982635,Tm3Al2,0.000928019499999877
mp-25095,NiSeO3,0.0359516282500012
mp-650676,K2Co(PO3)4,5.154710526333872e-05
mp-611153,CaMnBi2,0.17851926874999968
mvc-8689,BiPO5,0.16345428732142686
mp-853266,Li3Fe9O5F11,0.0873374873214301
mp-867265,LiTm2Os,0.0
mp-1099108,KLaMg14,0.17251499234375012
mp-770966,Li4Ni3WO8,0.05645129781250002
mp-1093682,MgSc2Zn,2.37861908
mp-2893,Dy(SiRh)2,0.0
mp-27647,AuCl3,0.0
mp-1029143,Te6Mo3WSe2,0.04222056416666753
mp-1093793,Ti2BeTc,3.5274085897916665
mp-561889,MgP(HO)7,0.004537443984374612
mp-744574,CoH6(SeO4)2,0.010430284999996431
mp-1094147,Na4Mn9O18,0.0059870362298344295
mp-1026403,Mg14SnMo,0.10179311562500004
mp-1099036,CaMg14VO16,0.040627052734375724
mp-2531,Er2Co17,0.0
mvc-11639,CaTi4(FeO4)3,0.0294872080624895
mp-13154,Fe3C,0.052787091874995085
mp-561638,CoMoO4,0.1717808391666802
mp-865450,ThGa3,0.0
mp-862321,LiAsPd2,0.0
mp-761118,Ti7Sn3O20,0.05351639391667007
mp-33738,TiNiO6,0.5527879792708337
mp-761178,CsMgP(H6O5)2,0.0
mp-1035896,YMg14CO16,0.3104178118164045
mp-673126,LiSb(PO3)4,0.048468044722206116