mpid,formula,e_hull
mp-631551,MnAlTc,0.7516240383333352
mp-30883,V4Zn5,0.0023114911111115077
mp-770215,Li8Mn3V(PO4)6,0.040350657976159
mp-684104,LiSb2P5O16,0.047076077500019416
mp-1016597,HfMg6Nb,0.2192149093750002
mp-752538,KSnO2,0.017330916093747817
mp-766740,Li6Cr5CuO12,0.044610213541663946
mp-763688,Li7FeO6,0.05338899499999794
mp-532789,Li6Nd6Sb(TeO8)3,0.010670214328128758
mp-1027176,Te4MoW3(SeS)2,0.10233843979166846
mp-961689,ZrCoAs,0.7375252749999985
mp-766144,Li3V4(OF3)3,0.06305780991228982
mp-540853,Ti3Ni3O,1.1470454485714283
mp-764185,Mn12O17F7,0.06890094781250244
mp-1095452,U3Fe2Ge7,0.025127706071429223
mp-762712,Li4Fe3P3O12F,0.060098519347839385
mp-774170,NaLi5Fe2P2(CO7)2,0.03985362461538512
mp-850110,Li2Mn(SiO3)2,0.014341784545445437
mp-764935,Li(CoO2)2,0.13948368250000165
mp-764144,LiCo3OF5,0.07684158949999986
mp-776061,Li4Ti3Mn3Nb2O16,0.038882169910714026
mp-770499,Mn4P2O9,0.012859462999990969
mp-977562,NdCdAu2,0.0
mp-773603,Na3V(BO3)2,0.04418370229165447
mvc-12967,ZnNi2S5,0.15901978812499884
mp-642279,U6Fe16Si7,0.0
mp-24149,LiCe2HO3,0.03648988321428437
mp-19245,BaLaMn2O6,0.009795277083387788
mp-567734,AlAs3(SeCl)4,0.0
mp-1008918,CdN,0.84487729631
mp-617281,In4Te3,0.0
mp-654900,CuH9C4NO6,0.7576537241071426
mp-649781,MnP4O11,0.009237522343748415
mp-1028929,Te2Mo(WS2)3,0.09890974833333477
mvc-11657,Zn(FeO2)4,0.29055414644230915
mp-680220,Sr(Ni5P3)2,0.0030204566666665045
mp-1078358,LiOsO3,0.0
mvc-10340,CaHo(MoO3)2,0.0
mp-865150,MgCdAu2,0.0
mp-1095512,NdFeSi,0.2511664075000004
mp-765227,Li6Sn5(P2O7)4,0.06494778382978428
mp-1021431,CsNaICl,0.14555594999999988
mp-1022631,YMg6B,0.4112874743749999
mp-771047,Mn(IO3)2,0.0401070541666666
mp-779592,GdOF,0.06628859666666642
mp-600050,SiO2,0.06450064708333159
mp-560515,K4Ru2Cl10O,0.0
mp-863729,Ho2OsPd,0.0
mp-12147,Ca3Al2O6,0.012506662965373394
mp-570887,K2Ag2SnSe4,0.0
mp-625826,Zn(HO)2,0.08218973050000056
mp-36028,Co2SnO4,0.0
mp-1241,BaAg2,0.0
mp-1080052,LiIO3,0.8636982189999962
mp-541177,GdVO3,0.0
mp-765422,Li9V3P8O29,0.03521063653061418
mp-4152,Ga2CoS4,0.08628141154761693
mp-554056,Ca2B5BrO9,0.0
mp-755898,Er3TaO7,0.006179952272727718
mp-510581,PrNiSnH2,0.0
mp-505172,NaZrCuSe3,0.0
mp-770296,La4Zn3O9,0.09733694062499863
mp-17085,Rb2Zr3OF12,0.0
mp-1037367,Mg30CuNiO32,0.009299509531250472
mp-18832,K2VO2F3,0.0
mp-541510,W2Se17Cl12,0.02591074286794326
mvc-7583,MgCo3O7,0.217888324772729
mp-1013587,Sr3Bi2,0.3719556003333331
mp-567723,Nd(NiAs)2,0.028886789999999607
mp-775259,Li2Mn3F8,0.051779711538462614
mp-31665,LiCr2(PO4)3,0.03676338326389583
mp-581496,Ce3(AgSn)4,0.3741865954545379
mp-22517,EuYSi4N7,0.0
mp-12784,YbAlAu,0.0
mp-1080094,SrHg3,0.003722232499999922
mp-1039242,Mg2Bi,0.1338087308333331
mvc-3343,Zn3Sn2O7,0.0630787658333336
mp-756748,ScH3(ClO5)2,0.0
mp-1094982,LiMg,0.04424261500000015
mp-849250,LiCrP3H8O13,0.09264861338140662
mp-646895,SiO2,0.012417026458333423
mp-769719,Li4Cr3NiO8,0.011464647187500177
mp-16315,GePt3,0.0
mp-911466,DyCrO4,0.00017697916665859736
mp-630836,Nd3(GeRu)2,0.0
mp-559776,Li5La3Ta2O12,0.29414572946969564
mp-1038971,Ce5Mg,0.09998781888889052
mp-13203,ScCuSn,0.0
mp-775017,Fe3Ni(PO4)4,0.04223956054689548
mp-772213,La4CuO8,0.05968163379807656
mp-557327,Na3Li3Co2F12,0.0
mp-1035811,KMg14WO16,0.1811250892968745
mp-734123,RbSrP3(HO2)6,0.020713481793477758
mp-8190,Tl2SiS3,0.0
mp-722684,KAlP4(H2O7)2,0.0
mp-677311,Re3Pb3O10,0.0479773899999989
mp-1077989,Nb2VSe4,0.06047694952381466
mp-767681,Li8Cr(FeO4)3,0.09865778107638068
mp-673692,Nd10Se19,0.018277611034482
mp-650112,Fe3O4,0.041424042500006315
mp-1077929,La2CuO4,0.0
mp-850751,LiVP2(HO4)2,0.02328593446428684
mp-780772,Ta2O5,0.05612666714285909
mp-865413,Lu2TcPd,0.09980936187500156
mp-768323,LiFe2(PO4)2,0.08918924471151346
mp-1094138,NaCo2P2O9,0.03947197470237995
mvc-14342,YNiO3,0.23877419649999965
mp-1327,NdMg,0.0
mp-2582,TiSi2,0.006035106666667289
mp-1094526,Y2Mg,0.10489005749999958
mp-765376,Mn3CoSn2(PO4)6,0.09793686354167884
mp-24864,CoO,0.0
mp-976595,LiLu2In,0.02580539173076879
mvc-15882,Mo2O5,0.20866362903061209
mp-865972,KTm2Cu3Se5,0.0
mp-10341,SrGeTeO6,0.0
mp-21357,U2Fe2Sn,0.0
mp-37859,Sr(PrSe2)2,0.0
mp-604008,CeAlRu,0.0
mvc-5999,Mg2SbWO6,0.1765774863333327
mp-17381,Y3Ge4,0.0
mp-13133,K2TiO3,0.0
mvc-15076,Zn(FeO2)2,0.3735278553571186
mp-765934,Li2FeP2O7,0.0800784015277829
mp-541027,Fe2P2H9NO11,0.004442236903215324
mp-861497,Pr2AgIr,0.0
mp-562193,Cs3Mn4(PO3)12,0.0
mp-705854,CaP3H10NO12,0.05362519814814881
mp-22342,PbSeO4,0.0
mp-33551,LiFe5O8,0.05265023321428418
mp-763441,Fe9O10,0.016935567631582767
mp-975312,RbF3,0.19243121500000004
mp-542605,Se,0.004966029218749668
mp-10368,CoPSe,0.0
mp-1008926,CrTe,0.2909178287499996
mp-1094418,YMg2,0.007424235000000223
mvc-2,Nb2Zn2BiO8,0.09851954089743488
mp-24882,NdCoO3,0.0
mp-1498,Al21Pd8,0.0
mp-544,Ti3Ir,0.0
mp-762895,Co2C2O7,0.0945807214772767
mp-864786,Yb2PdPt,0.0
mp-977385,NpH3,0.0
mp-770218,ZnIn2O4,0.06970980535714323
mp-685257,CdPbO3,0.0
mp-8848,TaFeTe3,0.0190942705555548
mp-1094473,Mg5Zn,0.04256819430000047
mp-690119,Ti3Fe5O12,0.029895231538437983
mp-762336,LiSb(PO3)4,0.08019596374998361
mp-9143,LiPF6,0.0
mp-850065,Mn3O5F,0.052890484027788176
mp-23195,Bi2O3,0.0227024594999996
mp-770381,Li3V3(BO5)2,0.07814916166667983
mp-24416,MnH,0.1667886706900008
mp-766258,Y13Tm3O24,0.0014790739218728532
mp-765116,Li2Fe2C2O7,0.050989849153859616
mvc-6579,Ca(CuO2)2,0.3390302714285713
mp-550111,SmBi2BrO4,0.0
mp-25684,Co3AgP3(HO6)2,0.0036768845436521147
mp-24092,GdH2,0.0
mp-30943,MgPSe3,0.0
mvc-10616,Be3V2(SiO4)3,0.13378443106249982
mp-10582,Ca5P12Rh19,0.0
mp-697027,NaSi2(HO2)3,0.001893557916666566
mp-559139,H8C3N2O,0.09138716857142626
mp-558131,Sm2Tc2O7,0.005488064886360888
mp-554714,Np2O5,0.0
mp-21705,K2In3AgSe6,0.0
mp-752503,CeZr7O16,0.02476256395833332
mp-40143,Cs2KZrOF5,0.0
mvc-2508,Sr2YTlW2O7,0.498382452999997
mp-1002570,KMnO2,0.03755770562500605
mp-865273,TmUTc2,0.0
mvc-9479,Ca(BiO2)2,0.090776718452382
mp-1026805,LaCeMg14,0.0795461473437502
mp-1003,TbGe2,0.05907794972222202
mp-626456,As3HO6,0.0956540625000004
mp-867152,EuMgGe,0.0
mp-554320,P2Pd2O7,0.012638879090907551
mp-540577,KZr2(PO4)3,0.0
mp-757207,YH5S3O13,0.011471828465869471
mp-582406,Gd2(Zn2Ge)3,0.0
mp-1063311,EuPd2,0.29269377166666377
mp-762650,Li3Fe2(SiO4)2,0.05981417916665688
mp-1077510,PrSiGe,0.03490467857142844
mp-1024962,HoInCo4,0.04080269335016773
mp-698654,NaMgFe(SO4)3,0.0
mp-850239,Mn2V3O12,0.07612165540440863
mp-763330,FeOF,0.06354808499999898
mp-554252,K2NaCrF6,0.0
mp-560458,Rb2U2O7,0.0
mp-865967,Ce5Al2Ru3,0.0
mp-763627,Li17(Co4O9)2,0.08860250162790706
mp-631480,IrOs2Br,1.4582854741666669
mp-570193,NaAuCl4,0.0
mp-566934,K2Th(MoO4)3,0.0106080123958332
mp-625179,Cu(HO)2,0.11268602250000105
mp-1037464,Mg30ZnCdO32,0.016849585859374905
mp-777222,LiFeBO4,0.15127761598214207
mp-28768,Na4SnSe4,0.0
mvc-14936,Ca3Ni2(WO6)2,0.08819135969298042
mp-13175,PtN,1.1929350538100003
mp-1077741,YbCu4Ag,0.0
mvc-3660,Zn3Si3(SbO6)2,0.3096688792500002
mp-1030988,LaHfMg6O8,0.3905302060937501
mp-22138,GdCd3,0.0
mp-567538,YbCu2,0.0
mp-769652,Li2VCrO4,0.012902977500000471
mp-557133,Cs2KMoF6,0.0
mp-484,Te3As2,0.0
mp-1093720,Al2TcRh,3.312143927291668
mp-720397,H18RuN5(ClO)2,0.08435055429000028
mp-1079826,ErSnPt,0.0
mvc-2422,Zn2Fe9O13,0.09740950145829697
mp-1012678,NaMo3P3O13,0.0027858445833270906
mp-676987,Yb14Ti10O41,0.20710652671153973
mp-756229,Na(SnO2)2,0.09063367196428283
mp-1023560,LaMg15,0.06093929609375004
mp-652716,CuMoO4,0.031210913263876705
mp-18285,PrCo9Si4,0.0
mp-14024,Zr3O,8.690874999928155e-05
mp-21659,Hf3(NbGe2)2,0.015980612500003488
mp-22249,CeSbRh,0.0
mp-19023,YbCrO4,0.0
mp-715566,CrO3,0.0434080834375008
mp-779849,La2WO6,0.018109347361114917
mp-566496,HoMoO4F,0.0
mp-20373,Co3B,0.021709642499999404
mp-19378,CrAgO2,0.0
mvc-5178,Ca2YTiO5,0.1395821425694379
mp-866072,MgTaRh2,0.0
mp-20084,GdRh2,0.0
mp-10080,PrGeBO5,0.00021609472222117176
mp-2985,HoB2Ru3,0.0
mp-865873,TmCdAg2,0.0
mp-6632,Ca5B3O9F,0.0
mp-1365,Ti6Ge5,0.0
mp-759568,LiBiP2O7,0.051129077803032885
mp-707849,H2Os5(CO)16,0.2214573745512816
mvc-8775,BiSbO5,0.2721935255357151
mp-864963,Dy2CuIr,0.0
mvc-5273,CaTi2O4,0.15238165113095548
mp-851064,Li5V3P8O29,0.03644301457405952
mp-721013,ZnGaP2H4NO8,0.007698129338236549
mp-1022532,Mg6ZrV,0.1681402387499995
mp-26262,LiCu(PO3)4,0.0003151935301053399
mp-24846,Sr3Co2Cl2O5,0.04665757953125471
mp-350,Zr5Te4,0.0010475922222230594
mp-555674,LuMn2O5,0.0
mp-565543,NaV(SiO3)2,0.0
mp-505537,Al3(Co10B3)2,0.008426862586206063
mp-543104,V2O5,0.00393809249999677
mp-753239,LiSnPHO5,0.047647755648146266
mp-570592,Tb4CdCo,0.0
mp-566228,Rb2Mo(IO3)6,0.0
mp-849233,Li2Mn3(BO3)3,0.0574746920097855
mp-850979,V3(O2F)2,0.02237383944445881
mp-13237,Dy5Si3B,0.15623520506944466
mp-1036504,CsMg14AlO16,0.2931118150000005
mp-767743,LiFeSiO4,0.05231893214284966
mp-1033242,Mg6GaBO8,0.5105377426041677
mp-606503,Ca3InAu3,0.0
mvc-12595,Mn2ZnO4,0.19604935571429305
mp-763868,Li2VCr(P2O7)2,0.0009514843181914756
mp-10103,LiYbAlF6,0.0
mp-30119,Cs3AsO4,0.0
mvc-11693,TiAlO3,0.9927804410000024
mp-573101,K6CoMo5O19,0.002061265846706739
mp-3439,SbPO4,0.0
mp-3248,TbAsO4,0.0
mp-780045,Fe3(O2F)2,0.08232250687499931
mp-980199,YbDyHg2,0.0
mp-504376,Li6Co5(P2O7)4,0.031435746879425075
mp-32697,Y10H21,0.0005463120967741375
mp-772058,Co(NiO2)4,0.01406492974358553
mp-1037800,YMg30FeO32,0.06468792316406269
mp-764004,NaNi2O3,0.014848296666671425
mp-18581,Hf2Co4P3,0.0
mp-776354,Mn3SbO8,0.09587483246527916
mp-989543,Cs2BrCl6F,0.0
mp-13364,CaZn2,0.02379535750000006
mp-684427,LiSb(PO3)4,0.016678742499983912
mp-5076,SrZrO3,0.012587009999998957
mp-1029779,ZnGeN2,0.0687909362500001
mp-770165,Li2FePCO7,0.015771007447909824
mp-764975,LiMnF4,0.06206581958332257
mp-1029219,Te2MoW3(Se2S)2,0.0632546000000005
mp-22714,LuCoC,0.0
mp-16560,KEr2CuSe4,0.0
mp-568634,Yb3(Ga2Ge3)2,0.0
mp-972237,Tc3H,0.672838180344999
mp-1016605,HfMg6Nb,0.15627605187500038
mp-19405,Ni(AgO)2,0.04297220099999954
mp-762953,LiFe2OF5,0.09378487956790328
mp-19122,BaSr2Mn2(Si2O7)2,0.0006613148822740552
mp-571624,Dy3Al2,0.008680476166667006
mp-27473,Sb2TeF14,0.0
mp-764312,VOF2,0.06278293921875111
mp-291,TiOs,0.0
mp-1096523,Nb2CoRe,4.174693585892856
mp-975787,PrW3,0.7741389699999992
mp-27590,CsB9H14,0.06388612807291416
mp-1020578,Sr4S3O,0.14427103625000015
mp-6327,LiAlSiO4,0.007650873809524228
mp-722980,Hg4HN3O10,0.0
mp-505573,Zr3V3C,0.051798980595238575
mp-29013,Ca14Si19,0.003106049545453793
mp-1029689,Ca2MoN3,0.0
mp-30438,Be2Cr,0.0
mp-3258,Ca3Ru2O7,0.002559643749998841
mp-1068331,Y2Ni2Sn,0.0002256929999990831
mp-561419,V2FeS4,0.03926396166666457
mp-19414,K3CrO4,0.0
mp-764624,LiFe2(BO3)2,0.05045583107956997
mp-667315,ScNb6Cl13O3,0.0
mp-20761,LaCoGe,0.0
mp-1018175,ThAu,0.0
mp-764676,MnOF,0.043847147500004624
mp-628680,K5Th(PS4)3,0.0
mp-695026,NaYb3Ti2(SbO7)2,0.053608296505680116
mp-25802,Li2Bi(PO4)2,0.06374383193910216
mp-16253,BaCaSi,0.0
mp-759493,LiSbP2O7,0.0927111348484848
mp-1477,BaSi2,0.0
mp-1094491,SrMg2,0.11686918916666665
mp-770174,MnP2O7,0.006215335999999461
mp-669400,ScRe2Si3,0.03538104750000848
mp-685427,Hg15(As2Cl3)4,0.00952298442857158
mp-697794,Mn2P3O10,0.07812524116660846
mp-779190,LiVF4,0.05430536583334344
mp-867357,Tc3Ni,0.0
mp-560898,NaPr(SeO4)2,0.0
mp-990429,GaAs,0.4214742400000002
mp-1098987,Mg14AlSnO16,0.2014737304687504
mp-556041,Ba2NiF6,0.025248068888886976
mp-21021,Mo3Se4,0.0639892014285719
mp-1063779,Cs2O2,0.33857640250000065
mp-23885,SrH12(ClO3)2,0.019267667380951536
mp-604915,CrSe,0.1298196083333325
mp-1025856,Te2MoW2(SeS)2,0.08412551499999843
mp-17786,Ba(SmTe2)2,0.0
mp-865893,LiZr2Tc,0.0
mp-757745,Ba4In2O7,0.08173577615384797
mp-3249,La4Ti3O12,0.03704871407894928
mp-776647,LiV4O5F7,0.07056140676469269
mp-23167,TlCl,0.04701018000000001
mp-686601,Na3MgAlSi7O18,0.09171991679166867
mp-16488,Al9Co2,0.0
mp-18857,Sr2FeMoO6,0.0
mp-706657,Al13Si5H18ClO38,0.02254252848888872
mp-976725,Hf3Au,0.14414445875000048
mp-581114,Cs2YSi4O10F,0.0
mp-558839,Cu(PO3)2,0.0
mp-28328,RbI3,0.0
mp-698457,NaLiH4C2O5,0.0806304262606874
mp-973685,NdHo3,0.013739939375001065
mp-1009544,CsRbP,0.2378598466666664
mp-171,VNi3,0.0
mp-864972,Mg2PdAu,0.0
mp-680724,Lu(BO2)3,0.0
mp-19725,Hf(FeGe)6,0.0
mp-17648,Yb5Si3SO12,0.09823385613492076
mp-974336,HoO,0.2351328729166661
mp-983598,Ca2AgBi,0.03766695666667008
mp-865168,Be3Ni,0.003930264999999268
mp-969,YbAl2,0.0
mp-1093669,Zr2FePt,3.40645163475
mp-862601,RhI2,0.0
mp-19124,Ca3Mn2O7,0.05821157055555747
mp-755723,Er2Pb2O7,0.005711133522727785
mvc-838,Mg(Fe2O3)2,0.08252955545454288
mp-16036,Tb2TeO2,0.0
mp-18584,Ho2SiSeO4,0.008046798046876802
mp-559593,PS3N5F2,0.2339443258772897
mp-626483,H4SO5,0.03704892224999856
mp-675578,Li2FeBr4,0.03717816500000026
mp-542205,BaYFe2O5,0.009427539007937469
mp-10756,VFeSb,0.4540214699999989
mp-1023076,RbMg6Mn,0.5662531325
mp-5889,Er2Ti2O7,0.011758618636351414
mp-8048,NdNi4B,0.0
mp-12599,PrTl,0.0
mp-1080610,Cs2Mn(Cl2O)2,0.2319472842755568
mp-759868,Li3Sb2(PO4)3,0.09632894549999982
mp-1039838,NaMg30BO31,0.1187501431199065
mp-775025,MnCu(PO4)2,0.017766351666668182
mp-27783,CsReBr4,0.0
mp-1095733,TiBe2Rh,3.3596216033490562
mp-866811,CaSnS3,0.07307416375000031
mp-690128,Mn2CuO4,0.06536660187499255
mp-3698,SrAlSi,0.0
mp-1018710,Hf2TaN3,0.5038116227777802
mp-505611,Sr2Cu2Ni(SO)2,0.2573405974999998
mp-973486,LuVO3,0.5606230459999981
mp-765241,VF5,0.005468545208334064
mp-978862,SrAlO3,0.0471964177499995
mp-29908,Sr11(ReO6)4,0.0
mp-1096787,Al2Zn2S5,0.11521184388888896
mp-21724,ZnSiPbO4,0.0
mp-938,GeTe,0.0
mp-1022812,LiYMg6,0.07057125249999885
mp-984796,BaTh3,0.3787635649999999
mvc-706,YV(WO4)2,0.03699423791666767
mp-973147,Mg5Sc,0.0322713100000005
mp-15800,Ti3PO2,0.30824920555555296
mp-3975,K2TaF7,0.0
mp-694948,TiFeO3,0.048311417250005206
mp-29621,Ba5Bi3,0.0
mvc-4746,Ti2ZnO4,0.22896266089286146
mp-623134,ZrInCu2,0.0
mp-1030982,CsLaMg6O8,0.5715098516145902
mp-776217,MnV3O8,0.05477827416666692
mp-1022476,Mg6FeCo,0.3343311210763886
mp-2654,Al2S3,0.0
mp-1061732,MgZr2,0.0648292099999983
mp-23278,NpCl3,0.0
mp-763205,Li2VO2F,0.1064550120833303
mvc-13410,Ca(SnN)2,0.2842737069999988
mp-1070860,EuHCl,0.0
mp-566113,GdMoO4F,0.0
mp-20271,LaAgSb2,0.0
mp-691135,LiMn3O4,0.03353641124999207
mp-5322,Pr3IrO7,0.0
mp-1076598,La7SmMn2(FeO4)6,0.13770484143750572
mp-22708,Th3Co3Sb4,0.0
mp-1073065,Mg2Si3,0.20804173211111046
mp-636813,Pb3O4,0.037474271428571626
mp-616539,FeC3SeO3,0.5579029266666673
mp-9703,K2LiGaAs2,0.0
mp-28695,KSiH3,0.0
mp-1073157,Mg2Si3,0.2346244096111105
mp-4829,Na2ThF6,0.0
mp-1027074,Te2MoWSeS,0.09663992416666643
mp-867973,Zn3(PO6)2,0.4661589764705889
mp-1035352,Mg14CuNiO16,0.015739938750001237
mp-5834,MgSiO3,0.006162123625002458
mp-1019534,BaAl4O7,0.000550607266664116
mp-20067,Na5OsO6,0.0
mp-8673,Li2SnTeO6,0.0
mp-1018714,HfGaCu,0.0
mp-561446,BaCa(GaO2)4,0.0
mp-1037203,YHfMg30O32,0.10803344366210954
mp-775985,V2NiO6,0.08767276777777155
mp-761509,Li6V3P8O29,0.02408525893117286
mp-1095473,PbClO,0.2546106108333328
mp-973155,Ge3C,1.393475880625
mp-998928,TlCdS2,0.2063252025781268
mp-972557,SmAg3,0.0015337237499997158
mp-28980,K3BiSe3,0.0
mp-972396,Ti2MnRe,0.023351283750001173
mp-541787,Na8Hg3,0.0
mvc-9169,CaCo3O7,0.16212786079544014
mp-605912,Al2NiCl8,0.006092090000000106
mp-782711,LiV4O5F7,0.04054812911763328
mp-990191,EuAl4,0.0
mp-765884,Zr15VO32,0.016414632604170976
mp-1037768,CaMg30MnO32,0.01732131140625004
mp-1969,NbSb2,0.0
mp-626275,Ca(H8O5)2,0.03666530893518605
mp-850358,LiCuSbO4,0.046905118571427984
mp-984719,BeAg3,0.2214972912500004
mp-778744,Li2MnNi(PO4)2,0.006252616250041143
mp-752402,BaSrI4,0.07822213895833308
mp-778861,LiV2OF5,0.056983682777780764
mp-14410,Tl6TeO12,0.0
mp-980063,YbDy3,0.10598315249999946
mp-541189,P4Se3,0.013376491700679338
mp-28687,U2Cu4As5,0.0
mp-9410,C3N4,0.28730960078285683
mp-720857,SbH3SO6,0.005223404625001926
mp-1018094,BaGaSnH,0.0
mp-865871,Li2ZnAu,0.0
mvc-16807,Li3(CoO2)4,0.16411566150000034
mp-761645,Li2Cr2Si4O11,0.014315322947361153
mp-642975,CrBi12Mo4PbO34,0.007406740985561378
mp-28587,BaH8O5,0.0
mp-510378,CsMnSb,0.19107273041666686
mp-1078445,Nd2BiN,0.004304018750000083
mvc-3169,Ba2Mn3Tl2O10,0.1697381838664187
mp-23683,H2CO,0.32262934583333625
mp-1034311,BaMg14SnO16,0.28270876585937543
mp-543019,GdNi2,0.0
mp-29020,P4SeO6,0.08034304819480376
mp-1097133,V2FeOs,3.740037686944445
mp-769518,Na3Mn2P2(CO7)2,0.004378168043464471
mp-759312,MgSiH12(OF)6,0.003735029615385521
mp-1037331,Mg30CdCuO32,0.023977610781249936
mp-770533,Li6MnO4,0.0
mp-605853,Li4CO4,0.1928924755555564
mp-1018681,DyZnIn,0.0
mp-1094532,Mg2Sb,0.29953789666666664
mvc-10813,BaTi2TlO6,0.4085397100625219
mp-542767,Sr2TmRuO6,0.0
mp-762610,Li2MnNi3O8,0.05733300577381064
mp-603567,ZnCoPHO5,0.0
mp-675556,Er2Zr8O19,0.09327789931035467
mp-561521,PH8C2NO2,0.06102124298299305
mp-14407,Rb7NaGe8,0.0
mp-540038,LiMo(PO4)2,0.03131842999997758
mvc-1889,Ba2CaCuBi2F14,0.04040326031249286
mp-697611,LiH5S(NO2)2,0.08527149362794795
mp-691116,Co2SnO4,8.045071428863793e-05
mp-28171,K3IO,0.0
mp-760415,Li3SbS4,0.005351050624999409
mp-560613,Na2TeO4,0.0
mp-1028233,Mg14AlSb,0.058898549591345876
mp-1040093,LiHfMg30O31,0.05869109222222413
mp-656850,Ti2O7,0.5020876851388882
mp-972036,WN,0.13197299749999836
mp-11583,Zr2SN2,0.0
mp-770767,SmCuO3,0.0
mp-8453,RbNaO,0.011886733333330568
mp-4408,Sm2Zr2O7,0.0
mp-7480,RbLuO2,0.0
mp-24019,H4NClO,0.20264524560666786
mp-1025206,Eu2AlNO3,0.11906212233000525
mp-1076671,La7SmMn4(FeO6)4,0.10651316843749292
mp-1098898,RbMg30CoO32,0.07534708749999998
mp-7394,BaAg2GeS4,0.0
mp-20024,LaCuSn,0.0
mvc-9041,MgCr2(PO5)2,0.09023679800000027
mp-771538,Li5Fe2Cu5O12,0.09137005416666444
mp-643081,Fe2(CO)9,0.5821231655416579
mp-867769,ScZnRh2,0.0
mp-616900,Zn(InS2)2,0.06764626196428658
mp-647029,Gd3P4Pd7,0.0
mp-1078826,ErAlNi,0.0
mp-771461,MnV4CuO12,0.021639641250009944
mp-27896,BF3,0.0007683828125006897
mp-504952,InGaSe3,0.0
mp-1029566,CsOsN2,0.20943800150000053
mp-849424,LiCu2P3(HO5)2,0.0723375681944356
mp-1079439,Fe(ClO2)3,0.793358086400012
mp-975794,Li3Be,0.23583753875000024
mp-30546,K(IrO2)4,0.04823296923077347
mp-864748,Gd2MgIn,0.0
mp-760462,Li5Ti(SiO4)2,0.06622087625001516
mvc-16626,Al(FeS2)2,0.15581737976190269
mp-29798,TlBrO3,0.008281125999999972
mp-849803,Li2Ni2S3,0.09527209309523954
mvc-2777,SrZnSn(PO4)2,0.08016600237980852
mp-1026489,Mg14CrSb,0.10066002406249996
mp-694994,CoH22N7(ClO2)4,0.5402919347582529
mp-863661,KMnP,0.0006561749999978161
mp-779942,Cr4OF11,0.033063608307287495
mp-556247,Dy3S3N,0.0
mp-706528,CuH9CSN4Cl3O,0.4389743787976652
mp-977264,Pm2Mg,0.016594767499999108
mp-765859,LiMnPO4,0.07372339642857195
mp-2640,TbAs,0.0
mp-29259,Bi2PdO4,0.0
mp-863731,InH4NCl4,0.0
mp-1026821,KMg14Cr,0.1845940581250005
mvc-5131,Ca2WO5,0.2623879812499981
mp-1016325,RbMg7,0.2395166025000001
mp-758848,Ti5NbO12,0.03207847634616279
mp-761506,Li4FeP2O9,0.08409888527344034
mp-676269,Yb2FeS4,0.3930643876190469
mp-865707,TiSnRh2,0.0
mp-769602,Li2VSO4F3,0.0862364461363514
mp-568636,TiCr2,0.006320400833333295
mvc-445,Sr2YMn2O7,0.2402972930777549
mp-569897,Cs(BBr)6,0.0
mp-573691,K,0.02378482625
mp-6078,Na2Cd3Si3O10,0.0
mp-22438,Ce(SiPt)2,0.0
mp-624383,Na2VCuF7,0.01977503909090661
mp-768987,Li8BiO6,0.06721617299999849
mvc-16324,Ca3CrN3,0.0005178671428573979
mp-849482,Mn12O7F17,0.06507466718750532
mp-695164,Ba8Ce7YHO24,0.018702643033540408
mp-849935,Mn2O3F,0.05570909187500472
mp-793783,Na5Fe2P2(CO7)2,0.08668807179998694
mp-1076880,La7SmCo5Cu3O20,0.07128889901041903
mp-560159,B6H21C5N2O,0.21672711836190567
mp-764697,Li3VOF5,0.09502768602381996
mp-779786,Li32Mn5Cr11O48,0.015597298958330619
mp-27548,CuTe2O5,0.04498020343750042
mp-558209,Ca3Mg(SiO4)2,0.03757589000000028
mp-861955,LiPm2Ge,0.0
mvc-6636,CaTiP2O7,0.20802434712380968
mp-1034594,NaMg14CrO16,0.042389003124999824
mp-20506,NbNiTe2,0.0
mp-34260,ZrF4,0.13345283349999892
mp-709540,CoH4C4(NCl2)2,1.1532027222777763
mp-773529,Na5LiFe2P2(CO7)2,0.012231261153844208
mp-767801,LiTiCrSO8,0.08047803214409655
mp-705054,Cs7U8V2ClO32,0.001820810150000796
mp-1025453,SmSi2Rh,0.0
mp-6544,LuNi2B2C,0.0
mp-707720,MgH40C10Br2(N2O)10,0.0
mp-864979,Gd2ReC2,0.0
mvc-8110,Ca2W3O8,0.07148324538461638
mp-1096378,SrHg2Bi,1.1927263241666668
mvc-7668,BaYVCuO5,0.2251293090740756
mp-1093834,La2ZnCu,2.2595687356250003
mp-775067,Li2V2SnO6,0.08633143318181435