mpid,formula,e_hull
mp-1026750,LaMg14Cr,0.14418250046875025
mp-504627,Er4NiB13,0.09403902412036924
mp-16839,Na3WN3,0.0
mp-618750,NaMnCrF6,8.156666666536694e-06
mp-1097662,NbInTc2,3.2115312
mp-25609,NiH12(N3O2)2,0.6345991182472455
mvc-288,Sr2YCu2AgO7,0.056624951666674576
mp-766628,Li5V3P8O29,0.03452446724072633
mp-779650,Na5CuO4,0.08008756508333281
mp-1008395,C,0.3305366499999991
mp-33948,Ho2Ti2O7,0.017408957272733616
mp-776170,LiTi2O4,0.040485326785697495
mp-542034,Pr5Co19B6,0.01479941966666676
mvc-15194,Y4Be6Fe3(SiO5)6,0.08156461290391448
mp-777389,LiFeF3,0.09851267799999608
mp-31306,C2O3F2,0.16635462857142969
mp-1003316,KMn4O8,0.00653351333335106
mp-555851,Na2Cd3(P2O7)2,0.0
mp-1018809,MoS2,0.0006395633333333706
mp-34783,Ga2CuO4,0.06074207071427917
mp-561549,K2Be2(Si2O5)3,0.0
mp-849518,Mn12O7F17,0.056519162465282775
mp-571094,Th7Ir3,0.0
mvc-15037,Si2NiO6,0.21507298935185207
mp-1027175,Te2Mo3W(SeS2)2,0.05403843999999847
mp-771653,Li6V3Ni(PO4)6,0.04456659356251258
mp-11840,BaAg,0.0
mp-696396,NaHCO3,0.0
mp-556212,K4U5Te2O21,0.0001334412500000326
mp-6188,LuNiBC,0.0
mp-18700,K4SiO4,0.0
mp-1016293,KMg7,0.17855125375000025
mp-1080226,CsTlBr3,0.0015253687499994224
mp-865301,TmBr3,0.0
mp-1072255,ScNi4Au,0.0
mp-675524,CsPbCl3,0.0
mp-760440,Sr2U4O11,0.09137659972690848
mvc-4351,Al2Cr3(SiO4)3,0.0653450123749959
mp-672695,KAgCO3,0.06204259875000063
mp-31204,Nd(SiAg)2,0.0
mp-642729,LaH3(CO2)3,0.08244411384615358
mp-1008524,BeSe,0.4984123624999999
mp-778864,Li2Mn3(PO4)3,0.0368542293750016
mvc-8519,Si4SnO10,0.1930406334999981
mp-1378,LiC,0.019556797083333244
mp-9945,CoTe2,0.016344738333332387
mp-865748,YbGaAu2,0.0022580422656246486
mvc-2541,Sr2YTlV2O7,0.2063561315864808
mp-640286,CeCu4Sn,0.17606584781250145
mp-569710,RbNb3CuCl9,0.02933655117346845
mp-15750,TaAgP4O13,0.0
mvc-10602,Cr3P3O13,0.058021167302621635
mp-1096418,Hf2CuNi,3.4971224334134603
mp-555448,Rb3Pr3(PS4)4,0.0
mp-766341,NaSb5O13,0.0
mp-771388,MnP2O7,0.006341041499998923
mp-1099611,Sr4Ca4Co7CuO24,0.08927733828125195
mp-5496,Al5C3N,0.043991491666666604
mp-773239,Li4MnV2WO12,0.0911101878499334
mp-14374,Na3Rh(NO2)6,0.005133003668941427
mp-561423,ZrTlCdF7,0.0
mp-1008786,MgTe,0.0639015624999999
mp-559537,Ca4P6O19,0.0
mvc-9821,ZnAg2P2O9,0.10837177604166914
mp-1025373,TcF6,0.0
mp-761818,LiCoPO4,0.06029592410714457
mp-566582,MoC3S2Cl7O,0.1431678349404768
mp-744098,VH20C2S2N6O13,0.035864323835345324
mp-783909,Li2MnSiO4,0.008215902812500175
mvc-2723,SrSb(PO4)2,0.10190178666666316
mp-9808,Rb3NbO8,0.0
mp-19950,Dy2Ti3Si4,0.0
mp-1095380,LiEuBi,0.0
mp-1094274,SrMg,0.04829589437500004
mp-614489,GdInCu2,0.019446291250000414
mp-971631,GaP,0.5790906900000001
mp-859799,Li9Si2Ni5O16,0.03757450914062765
mp-560411,CdSb6(S2I)4,0.0027229421052625824
mp-705336,Li2Co3(P2O7)2,0.03553825315220749
mp-1075793,Mg3Si2,0.17460464866666658
mp-1027847,Mg14GaFe,0.1164235856250011
mp-566720,Rb2Mn(PO3)4,0.0
mp-754516,LiNiP,0.03176617404761917
mp-756804,TePHO5,0.0673785760417136
mp-762535,Li2Fe2(SiO3)3,0.07210203749999701
mp-12716,LiTlPd2,0.0
mp-571244,Nd10(B3C4)3,0.03741950009677808
mvc-9146,MnZnBiO5,0.1232860301041665
mp-780557,Li3FeP2HO8,0.03999679599999872
mp-763666,Li6Ti3V(PO4)6,0.07541064239062845
mp-6947,SiO2,0.19618174833333413
mp-652092,Fe4Pb(CO)16,0.6302363363963996
mp-764077,Li3V3P8O29,0.04748022235465399
mp-699460,KLiH4S2(NO3)2,0.0527752858028574
mp-1079552,TbGa2Ni,0.0
mp-1074597,Mg4Si3,0.21244697730158849
mp-12063,Ce(AgGe)2,0.0
mvc-9791,Al4V13Si2(SbO14)2,0.19956632848639266
mp-8543,Na3AlAs2,0.0
mp-555786,Si(PbO2)2,0.006072663571428549
mp-1096337,Ti2MoRh,3.6831932741666655
mp-648086,GdGa2Co,0.0
mvc-2132,Mn4Al(CuO4)3,0.2449078911406249
mp-619128,V6PbO11,0.032601639444445496
mp-884,NdSi2,0.0
mp-32453,VPO4,0.02393294208333252
mp-763359,LiCr2CoO6,0.10347535341666793
mp-771677,MnV4CrO12,0.05095447576388068
mvc-4453,Al(SnO2)2,0.4907551519642768
mp-19068,TmVO4,0.0
mp-555503,C3S2ClO2F3,0.16518793854708225
mp-12487,CsDyCdTe3,0.0
mp-1026713,NaMg14C,0.24871031046875025
mp-542632,GdNi,0.0
mp-639,US2,0.0027792233333325807
mp-578613,NaVO2,6.874500000630945e-05
mp-4596,Sr2RuO4,0.0
mp-864960,Dy2CuRh,0.0
mp-1096072,AlFeIr2,3.4145623075
mp-1094074,ScFe2BO5,0.0
mp-1093872,Mn2SiW,3.7646404296875
mp-866071,MgTaOs2,0.0
mp-31337,InPd3,0.029417793749999525
mp-695202,Mg4Al9Cu(SiO4)9,0.032446718423733145
mp-1094328,MgTi3,0.2267965381249999
mp-1080073,MnTe,0.005054727499999245
mp-559737,Rb2Tb3AlF16,0.0018101792272746664
mp-677550,Ca5Al12Si12(AgO24)2,0.1217161304272132
mp-1027159,MoW(SeS)2,0.048072710833333865
mp-18725,YCrO3,0.0
mp-10854,Tb(BC)2,0.0
mp-758383,LiCu3(CO3)3,0.10782696440104188
mp-1096004,Hf2NbIn,3.52595145675
mp-744182,CrHSe3O8,0.2538192301923061
mp-778351,Li10Mn3F16,0.049448093103448436
mp-1094044,SrCa3Mn4O12,0.047073601107131324
mp-1095106,Gd(CuSn)2,0.0007786939999991915
mp-1019101,SmGeAu,0.0
mp-690566,NaCo2H3(SeO5)2,0.5538052505709894
mp-9905,Ba2Si,0.0
mp-762487,LiFeP2O7,0.04377388045462993
mp-1028948,TeMoWSe2S,0.042445915000000056
mp-3048,U2SeN2,0.0
mp-1097859,Mn3Ge5,0.015622635625000212
mp-1078916,Tm2InCu2,0.0
mp-775387,Li4Fe3Co2Sn3O16,0.10183185526784387
mp-780050,Hf2N2O,0.0866334141666627
mp-27798,B4H5,0.012847587031240336
mp-2039,ScMn2,0.0
mp-567767,CoCN2,0.21198695127999925
mp-12453,HoCuS2,0.0
mp-146,V,0.0
mp-1078737,HoCoGe2,0.0
mp-1025239,Cr2CoTe4,0.05079641892857012
mp-1019544,BaZrO3,0.0003017770000006692
mp-980769,SmCu,0.0
mp-777980,LiCr2(PO4)3,0.0750354140972318
mp-19147,NiCO3,0.0
mp-631396,KFeTc2,1.4918444624999996
mp-861268,LiLaNb2O7,0.07771303863636447
mp-568371,Tm(SiRu)2,0.0
mp-1027854,Mg14ZrGa,0.07732313015625047
mp-754199,BaSrI4,0.04153491895833339
mp-542888,La3AgSnS7,0.0
mp-566939,P2W2O11,0.009316874499999628
mp-773979,Cr(SO4)2,0.06188302876894002
mp-530933,Li5P2N5,0.01065218479166763
mp-531297,Ga4GeS4,0.01897732958333176
mp-777701,Li5Mn3Cu2(PO4)6,0.07085504493749628
mp-12904,HoAgTe2,0.0
mp-31872,Fe5(P3O11)2,0.03200924386363724
mp-124,Ag,0.0
mp-672344,CeAl5Pt3,0.0
mp-767869,Li3NiPCO7,0.05448805192306772
mp-19885,InGaS3,0.012156789666664558
mp-567465,TlC,2.10758326875
mp-613733,K2PdN2(ClO2)2,0.0363320357966046
mp-1033729,HfMg14BO15,0.2851728055241942
mp-600063,SiO2,0.01206058222221884
mp-776916,Fe3Ni2Sb(PO4)6,0.01435363069443252
mp-11166,BaZnCO3F2,0.0
mp-1030616,Te4Mo3WSe4,0.04966382583333395
mp-622187,Li3VF6,0.017112748666650468
mp-1097016,H4C7,0.13152110416666662
mp-767299,Li3Co2CuO6,0.10467472583333316
mp-763120,Cr2CoNi3(PO4)6,0.11234433277777356
mp-510173,PuGa4,0.3928482779999998
mp-1099763,Ba2Sr2Co(CuO4)3,0.06497260060937737
mp-779263,Li4Co3P4(H3O4)6,0.03659291544812948
mp-29529,NaSnP,0.0
mp-18673,CsZnPO4,0.014189162857142
mp-569292,ZrCuH8C2NCl6,0.014979938421052275
mp-761339,NaMnP2H10NO10,0.016307052133337052
mp-5150,HoSi2Ni,0.0
mp-1026399,Mg14CrSn,0.07980101000000017
mp-567873,RbSmGeSe4,0.0
mp-31160,CaZnSn,0.0
mvc-6,Nb2Zn2TeO8,0.12061204012820514
mp-21490,CeSnPd,0.0
mvc-3947,Mg2Mn2O5,0.24713810333334685
mp-774950,Li2V3CoO8,0.053911983511905966
mp-13350,RbUAgS3,0.0
mp-866202,Li2SnPt,0.0
mp-775647,Li2Mn3SnO8,0.0228383125446312
mp-542931,Bi2B8O15,0.0
mp-158,As,0.02366599000000047
mp-2689,ThFe5,0.0
mp-531882,U7(Pd3S4)8,0.0
mp-20212,BaPr2CuO5,0.023795151666698544
mp-1094224,ZrSn3,0.42519840875
mp-18142,Ca(Al5Cr)2,0.0
mp-764717,Li2MnF6,0.08173118370370336
mp-721753,CsH7(C2O5)2,0.041691559488638674
mp-1056311,Pr,0.10403974000000016
mp-974627,K3Tl,0.07739366645833322
mp-19946,YInCu2,0.03104278777777836
mp-20897,Ba4Y2Cu6O13,0.012036950600009531
mp-31138,MnPd3,0.0
mp-764449,Mn2Cr3O12,0.01625944294117776
mp-12368,SbS2NF6,0.004440849138582337
mp-24029,Na2H10SO5,0.0018431043055553427
mp-755316,Dy2Sb2O7,0.0961746359090876
mp-2105,Hf3Si2,0.0
mp-850237,Li5Cr4O8,0.09580568450980652
mp-20669,Ca2In,0.0
mp-559459,CsInS2,0.0
mp-771816,Gd3NbO7,0.012672004318186936
mp-776721,Ti3V2Sb(PO4)6,0.05603564944444095
mp-768732,Ba6SrI14,0.08267126273809478
mp-777450,Ti5Mn(PO4)6,0.08988076977628978
mp-647244,KNi4(PO4)3,0.0
mp-1034284,RbMg14BO15,0.3017114725659837
mp-1037311,Mg30TiCuO32,0.05325970089843768
mp-917564,FeBr3,0.00022430125000028056
mp-1028002,CeMg14Fe,0.12608532687500018
mp-24517,Rb2CaH4,0.008987217500000089
mp-647391,CeP5O14,0.0
mp-1021518,CsCr5S8,0.04144954714285642
mp-622345,U5Ge3,0.15987789375000186
mvc-8959,CaLaFeSbO6,0.0
mp-773102,Ce4YO9,0.0321794969940612
mp-989643,LaCoN3,0.0
mvc-10371,Mn2ZnO4,0.03690569452381709
mp-1027942,Mg14ZrCu,0.06177088953124965
mp-644330,H8C3N2O,0.6752102757142842
mp-24147,AcH2,0.0
mvc-12300,Y5Mn3(NiO6)3,0.08908401891522821
mp-775471,Li3V4FeO12,0.07563477300002752
mp-566981,Li4WO5,0.0
mp-540938,Pb5(IF4)2,0.07646504466666659
mp-568902,Yb(CoGe)2,0.0
mp-1097320,NbRe2Mo,4.623135504583333
mp-680185,CsRe6Se8I3,0.0
mp-29109,SiI3,0.0
mp-771912,Li4Cr2C4SO16,0.07009243259259268
mp-558489,Ca6Hf19O44,0.018359035688407133
mp-774868,ZnP4O11,0.006423175937497304
mp-767202,Li6Mn(OF2)2,0.10315950102563942
mp-768001,Li6Fe(SiO4)2,0.06332643367646718
mvc-5992,AsWO5,0.2192028927678571
mp-1034788,Mg14CdSiO16,0.23952595382812536
mp-623670,Ce5C2Br9,0.0
mp-980110,Th(NiSn)2,0.0
mp-667803,Nd2Cu2O5,0.08187300407406628
mp-1849,Mn2P,0.0
mp-1080374,CeSe2,0.5433747316666668
mp-867841,GaTc,0.0
mp-1097099,MgBiPd2,1.9516225025
mp-769272,LiCuPO4,0.05747239035715612
mp-3833,Mg(AlSi)2,0.02876291855555557
mp-561664,TeF4,0.0
mp-734150,Na3YH6(CO4)3,0.0
mp-20340,EuN,0.0
mp-777469,VO2,0.038706437499998365
mp-1016820,MgSnO3,0.6291769235000002
mp-1377,ThCu2,0.0
mp-568620,CsFeI4,0.0
mp-1075040,Mg3Si4,0.2422582219047613
mp-555827,Sr2Cu(BiO3)2,0.062080992727275415
mp-19330,CaMoO4,0.0
mp-570666,Mo3Pt2N,0.0
mp-1095970,FeCuPd2,2.371398983333333
mp-862938,PmMgHg2,0.0
mp-859133,LiH2N3O,0.06223740409333356
mvc-12083,Mn4(CuO4)3,0.04766129971491573
mp-1096784,Ni(AsO2)2,0.0
mp-1026895,Mg14CuBi,0.05494967281250029
mp-30012,BiKrF7,0.0
mp-782689,CoO2,0.018382864166664348
mp-10890,LiAl3,0.006497694999999748
mp-778619,Na4Co2O5,0.0886593976136476
mp-763351,Fe2O3F,0.08861115947916431
mp-1030704,Na15W7N19,0.0
mp-1016224,Mg3Cu,0.11734149125000035
mp-861539,Li4Ni7(PO4)6,0.06186449402437778
mp-1019555,BaNaLi3(BO2)6,0.0
mp-3281,Al5BO9,0.0
mp-554648,Ag5IO6,0.005997809895833761
mp-767773,Li4V3Fe3(TeO8)2,0.04556195427909948
mp-754855,CaAsH5O6,0.09448673044871292
mp-3579,UGeSe,0.0
mp-25103,K2NiPb(NO2)6,0.06358325942218457
mp-28271,Sn5BF13,0.0
mp-773202,Li5Mn5(SbO6)2,0.05099008166666685
mp-17210,Nb2V4Si5,0.1843775770000029
mp-8909,RuO2,0.06615486749999988
mp-559558,Cu3P8(S2Cl)3,0.0
mp-580236,EuCd,0.0
mp-722472,C6S3(N3Cl)2,0.4758536225948733
mp-581805,Ni3Mo3N,0.03919120532737885
mp-567912,SmHgPd,0.0
mp-6765,Li3AlGeO5,0.0
mp-981377,V2ReTc,0.0
mp-1057650,NpN,0.0003766199999990505
mp-972941,NaBi3,0.054141323750000137
mp-22114,ErSiRh,0.0
mp-743994,V2Ni(H4O5)2,0.5277768335714299
mp-558390,RbGa2P5O16,0.0
mp-977380,LiMg2Pd,0.0
mp-866468,CrH9(BrN)3,0.0
mp-974335,RuRh3,0.061793771249998734
mp-861736,LiSbPd2,0.0
mp-780644,Fe2O3F,0.08804074281249896
mp-667383,SiO2,0.015435688928571169
mp-32396,LiNiP2O7,0.05648026225379255
mp-560605,LiLa4AuO8,0.0
mvc-3270,MgVSiO5,0.07682182250000125
mp-640045,Ti8Bi9,0.0
mp-1093744,ScAg2Sn,2.0017021556250003
mp-19936,Sc(MnGe)6,0.0
mp-1096269,LiYZn2,1.81170831
mp-770633,RbLi2Co2(BO3)3,0.05491358329044438
mp-763531,LiP3(WO6)2,0.006383431666725059
mp-1078965,Cs2Sb2Pd,0.0
mp-23668,H9C4NO4,0.13937179291666624
mp-555093,CuB4O7,0.04518676069444183
mp-4558,Li4GeO4,0.0
mp-19529,W18O49,0.0
mp-619196,NaCoPO4,0.02859639874999065
mp-1038013,BaCaMg30O32,0.1030008920312504
mp-762629,LiFeP2O7,0.06600310931818232
mp-569358,Bi,0.555676445
mp-773987,Ti12Fe5O32,0.1007275287117313
mp-1094773,CeMg,0.04177468083333346
mp-755832,Na5GdO4,0.040393699999997416
mp-1035738,Mg14ZnCO16,0.2316269521484369
mp-1003736,NaMn2O4,0.09222672089287087
mp-555436,S5N2(O2F)4,0.12529142185474385
mvc-6929,NiO2,0.4438574830555568
mp-558953,Bi2O3,0.6087189349999997
mp-8635,Zr,0.04132535999999831
mp-24876,Co3(BO3)2,0.02323830803030802
mp-5154,HoNiC2,0.0
mp-1097465,LiHfHg2,1.8615283775
mp-961656,VFeTe,0.1525748538888907
mp-22425,Sc2FeB2Ir5,0.0
mp-976930,Ni3As,0.07710375333333364
mp-540367,Li3Ni(PO4)2,0.0569017517410666
mp-1189,PrAl2,0.0
mp-570078,La4MgIr,0.0
mp-685605,FeCu3S8,0.019725792500000058
mp-753815,CaY2O4,0.03968531142857047
mp-7087,SiO2,0.01159620916666526
mp-570159,SmZnSn,0.0
mp-851269,V4Cr2O13,0.0
mp-1076014,Ca2Mn2O5,0.06346028388886893
mp-20731,In2HgSe4,0.0
mp-1038660,Mg30NbCrO32,0.06719787411830236
mp-624186,La9B3C6Br5,0.0
mp-4585,Pr6Fe13Au,0.01781927374999981
mp-574,Ta2Co,0.0
mp-1018053,InCu,0.045561335499999515
mp-504543,SnPbO3,0.15551767474999778
mp-29862,SnBr2,0.0
mvc-5061,Zn2FeWO6,0.08242719449999925
mp-770887,BeCrO4,0.003166909375003968
mp-29213,Cd2Ge7O16,0.0
mp-10474,NaPF6,0.0
mp-315,PbF2,0.0
mp-19163,SrWO4,0.0
mp-616734,Rb2Cr2O7,0.0
mp-769471,Fe3Co2P6WO24,0.043530506481438636
mp-770527,Li2Mn4O9,0.07767714991666619
mp-30890,Hg3SO6,0.0
mp-765240,Li3VOF6,0.07714207606061851
mp-1235,TiIr,0.0
mp-973883,Ge3Rh,0.3731673537499995
mp-686671,CeBeSiHO5,0.36743310878445534
mp-26745,LiSbP2O7,0.03631704371212141
mp-31550,Co(PO3)4,0.055086034669126434
mvc-641,AlAg(WO4)2,0.11342171083333595
mp-1002081,KNaICl,0.07462193500000014
mp-1095517,EuPIr,0.0
mvc-11351,Ca3(CrN3)2,0.6243629988636386
mp-7979,K2PdF6,0.0
mp-1096088,Nb2MoRu,4.2336434050000005
mp-570187,Tb5BiAu2,0.37103640999999854
mp-1689,HfRe2,0.0
mp-662607,CeP4(ClO)13,0.10677010411290144
mp-698578,Fe21O32,0.7155009756014161
mp-767460,Li4V2SiGeO10,0.0032978780555446012
mp-675525,InGaSe2,0.04469264062500011
mp-557522,PCl2OF,0.0
mp-9574,NaBeSb,0.049663684583334256
mp-1077622,EuAgO3,0.244831167958334
mp-771591,Mn(IO3)2,0.01810565638888839
mp-631552,SrBiB,1.5802523506623922
mp-27748,Be(B3H7)2,0.016978120227261858
mp-1095554,ErNi3,0.0
mp-1022036,Mg6SiNi,0.19875275225781275
mp-850265,LiMnP2O7,0.06913419670454601
mp-1077476,GdSn2,0.010584675000000487
mp-510249,BaV13O18,0.04483029472656064
mp-20552,Cr2As,0.0766141908333342
mp-1039025,MgCd,0.5589553550000004
mp-771698,LaAlO3,0.05703110099999975
mp-777883,Ba6YCl15,0.09473534488636216
mvc-7287,Ca(SnO2)2,0.1599619621428623
mp-12832,Ba3CaRu2O9,0.015793138000007367
mp-990493,PuBi,0.0005864350000006624
mp-1009548,PdN,0.9452912738099996
mp-768348,Sm(ClO4)3,0.0
mp-1028385,LaMg14Al,0.066399980390625
mp-775308,Li2Cr3TeO8,0.023285042232161324
mp-638261,La2GeO5,0.0
mp-770310,Li5Mn2P2(CO7)2,0.042062107933336534
mvc-15844,MgSbF5,0.12398187214285628
mp-561055,RbB3O5,0.0009173686728418672
mp-771092,Li6Mn3Cr(PO4)6,0.055828567781258435
mp-684950,KNaZr2Be(PO4)4,0.9464191857999972
mp-976343,HoErPd2,0.017854978749999972
mp-585960,Gd3Fe5O12,0.1187725398749997
mp-772063,BaLaCl5,0.07707148535714481
mp-567083,K2SrV3O9,0.0
mp-676104,Tm2CuO4,0.2529148316071437
mp-780011,Mn6O7F5,0.06562227937501675
mp-708184,H10C5S2N2(O2F3)2,0.3102087850088937
mp-1022159,Mg6CdFe,0.2284406300000001
mp-867188,RbNpCuS3,0.0
mp-510321,Zr5AlSn3,0.0
mp-1008555,AlCu3,0.008689847499999459
mp-22999,Hg3(ClO)2,0.005813347857143381
mp-1035135,LiMg14CO16,0.2802367964648438
mp-640266,Ca3Al2O6,0.5479646670562772
mp-762178,Li4V3P8O29,0.05079702393939911
mp-1077803,CaNi5,0.003105324999999937
mp-11288,Ca3Hg2,0.0
mp-561543,BeF2,0.0
mp-773965,Nb2PbO6,0.006718143814817168
mp-861467,LiMnPO4,0.0695552132142856
mp-1016111,MnHO2,0.053542599140624425
mp-1080842,Ba2UPbO6,0.024777781029415642
mp-602511,Cr3H8(NO5)2,0.3351219496703441
mp-561244,AsCSCl2F9,0.0748793503224201
mp-556053,TeC8(OF3)4,0.34257570189999603
mvc-9588,Zn(BiO2)2,0.17477143678571494
mp-771309,Eu2Y2O5,0.10019317472222332
mp-764914,Li3Ti4VO8,0.08191607031249859
mp-865530,YThRu2,0.0
mp-531590,SrAl22O34,0.013654667105259756
mp-556258,Na3BeAl(SiO4)2,0.0
mp-9516,Al2SiO5,0.10851499156249922
mp-19275,CoO,0.3235802524999949
mp-1097177,Ti2GaMo,3.440224487500001
mp-14415,Pr2Be2GeO7,0.0
mp-765290,Li4V3P8O29,0.05076282621212602
mp-608,TiCo3,0.0
mp-773598,TiFe5(PO4)6,0.017865756041635098
mp-2562,MnS,0.017909945000000427
mp-5932,Nd6Fe13Si,0.01629746462499959
mp-562809,GdBi2BrO4,0.0
mp-1078777,U2TlSe6,0.0
mp-631427,CuIrBr,1.3537104000000009
mp-1080296,CeSe2,0.5634389512500011
mp-862857,PaS3,0.0
mp-21062,YbMnGe,0.11782792694444487
mp-867236,Tb2IrPd,0.0
mp-555652,K2Zn(SO4)2,0.0
mp-1079649,Si,0.427900695
mp-21580,EuSnF7,0.0
mp-541353,K2(TcS2)3,0.0
mp-2520,TmSb,0.0
mp-676290,RbHS,0.2714109333333328
mp-764881,V4O7F5,0.017379642708338142
mp-6500,KRb2ScF6,0.0
mp-758689,Li3CuF4,0.08424514531249994
mp-3882,Sm(SiRh)2,0.0
mvc-9411,Cr13Si2(SbO14)2,0.3801796478472284
mp-5134,LaMg2Ni9,0.004284079166660959
mp-28018,Be(H2N)2,0.0
mp-572284,SbXeOF9,0.0924035988541716
mp-770319,Li5Mn2P2(CO7)2,0.04511819933333605
mp-850141,Mn2OF3,0.04039080220833391
mp-1031710,Mg6CoBiO8,0.2231137297656245
mp-21101,U(SiPt)2,0.0
mp-767242,LiCo2(PO4)2,0.001904293173091709
mp-978265,Mg2ZnPd,0.006323954750000027
mp-1078676,Tl2SnHgSe4,0.0014753773437501394
mp-600005,SiO2,0.015675796874999648
mp-531358,Sr17(Ta5S21)2,0.006001907101449433
mp-542769,Sn(CO2)2,0.0835690999999974
mp-1026640,RbSrMg14,0.1775228740624999
mp-769737,LiAlVO4,0.05021393330953838
mp-15635,TiTl3F6,0.09690295350000344
mp-557484,BiS4N3Cl4,0.011056187321666577
mp-613826,BaCrF5,0.0005145249999776169
mp-558847,AlSBr3N,0.009326537374443332
mp-558228,Li2MnF6,0.03170783851851855
mp-3073,Sm2Te4O11,0.0
mp-3348,LiBIr,0.0
mp-1016277,YMg7,0.04395506125000015
mp-765852,Cr(CoO3)2,0.09059328972222502
mp-505597,Tb(Ni2P)2,0.0
mp-33107,SF4,0.357013321729164
mp-1095061,NbReSi,0.0
mp-781073,Li5CoO4,0.06723771975001114
mp-765545,LiVF3,0.045194789999997376
mp-1095793,ZnCdRh2,2.30014512875
mp-977424,Yb2ZnPb,0.0
mp-706662,AlB3H14N,0.12686879306263155
mp-1094533,MgSb,0.16206188750000014
mp-13406,LaAgPb,0.0
mp-567720,CuHgSeBr,0.009407001145833592
mp-30213,Sb2BrF15,0.0
mp-31777,LiFePO4,0.03705038595238008
mp-12448,LiSm2OsO6,0.0
mp-12664,Be12Au,0.11394312653846095
mp-971924,DyYAg2,0.0
mp-779664,AgGeO3,0.08613760900000234
mp-570431,AgTe3I,0.01808425899999966
mp-32606,Ba3P2,0.0
mp-1008928,EuSe,0.2950929099999993
mp-1865,UN,0.0
mp-1078864,KGa,0.10123568208333378
mp-7013,Ho2Be2SiO7,0.0
mp-630227,C,0.3922373348333323
mp-626165,NaH9O5,0.0523149759999999
mp-622620,ErNiSn,0.0
mp-999027,Ti3Al,0.11940041625000042
mp-20714,FeSb2,0.0
mp-1021696,Mg6VB,0.6876553525000002
mp-569933,HfCuP,0.7989724966666658
mp-1028366,KMg14Ni,0.1743079056250001
mp-541908,KSbF6,0.0021305168750007653
mp-705803,Ti7Fe13O30,0.1105112773692234
mp-616327,In3Te3I,0.0
mp-21170,KPb2,0.0
mp-7323,RbBe2BO3F2,0.0
mp-21399,CeMnGe,0.04941434749999818
mp-8957,Na5TaO5,0.0
mp-673657,Ti7S12,0.0
mp-740731,Al2H12(SeO5)3,0.06759429218750057
mp-1095506,BaReH9,0.06716073818181911
mp-565953,Ba3NbFe3(SiO7)2,0.0
mp-1025242,ScGa5Co,0.0
mp-557301,K2Ti(Si2O5)3,0.0
mp-853182,LiCr(Si2O5)3,0.08840450431160463
mp-761948,Li3V3P8O29,0.047174268284874366
mvc-9818,BiO2,0.15663911944444653
mp-865599,Lu2RuPt,0.0
mp-540375,LiCoP2O7,0.03187739704545578
mvc-4407,TaZn2WO6,0.15077421037500027
mp-1031639,Mg6NiCO8,0.5944153509374983
mp-559668,Cs2CdBi2S5,0.0
mp-1077045,Ti2H,0.046403166666666884
mvc-9175,TiV(PO4)3,0.013701337794120859
mp-1016904,VCdO3,0.2500330505000008
mp-1080826,C,0.2962675975
mp-777253,Li6Fe2O5F2,0.09482555383333667
mp-753209,LiAgF4,0.0637150466666645
mp-570817,Cu2P8Se3I2,0.0
mp-20740,Tl4Te3Pb,0.0
mp-610915,CoNi(PO3)4,0.0040122511110958214
mp-19733,Ce2In,0.009295387916667508
mp-540256,NiPO4,0.1368082888541604
mp-1028028,YMg14Sn,0.06427027775000038
mvc-12231,MgV4O8,0.092108171346176
mp-5837,LaGaO3,0.03196867907142842
mp-608239,Cu8Ge5C4(S2N)8,0.3852367813626989
mp-569674,La(CoAs)2,0.0
mp-1069755,Li2CaN2,0.3381075277500001
mp-7794,KSnS2,0.0435584004687497
mp-1026857,NaMg14Cu,0.07359260999999995
mp-5369,PrB2Rh3,0.0
mp-762966,Li3V3P8O29,0.05330004677325917
mp-850774,Li3V4(OF3)3,0.12362449280700805
mp-25540,MnH4(CO3)2,0.038628245192308334
mp-7701,BaSi2,0.035860289999999566
mp-27532,Si(PbSe2)2,0.0
mp-763781,Li3Fe2(SiO4)2,0.060209210166656035
mp-1080560,NdAlCu,0.0
mp-1099810,Sr2Ca6Mn7FeO20,0.0606992644444615
mp-769610,Ca5Ta4O15,0.04978002830356232
mp-7754,Si2Ru,0.12666516250000015
mp-1096500,TlInHg2,0.7359652762500001
mp-989594,Cs2NaGaH6,0.07187005950000014
mp-695251,Ca2Al4Si4H18O25,0.3342464235849043
mvc-780,Ba2AlSb3O8,0.5385084413839296
mp-12181,BaSnS2,0.0