mpid,formula,e_hull
mp-767558,LiCo3Sb(PO4)6,0.08249708666073374
mp-777150,VOF3,0.022569021000001573
mp-571486,CuSe,0.0
mp-975897,Hf2RuRh,0.010376537499999115
mp-581987,Dy(Zn10Rh)2,0.0
mp-849369,Li3VOF4,0.11484605327160224
mp-1069950,Pr2AlNi2,0.006641031333335157
mp-1093707,TiVOs2,4.167448736666668
mp-30627,DyZn5,0.005116150909090679
mp-765115,Cr3(OF)2,0.11042738446428224
mp-759030,KSmH4(N2O7)2,0.0
mp-27910,Bi2Te2S,0.0
mp-30347,ScInAg2,0.0
mp-32464,LiV3(P3O10)2,0.04227084916668744
mp-769630,Li2Mn3F8,0.08805023769230758
mp-771727,P4H3(WO8)2,0.03871645549999947
mp-32913,Nb16N13,0.10265167862069012
mvc-15907,WF5,0.37947999111110864
mp-12774,ThIr,0.0
mp-862854,PaPd3,0.0
mp-1013691,Ba3BiP,0.10358256091667163
mp-943469,LiMnHSO5,0.001866765555551985
mp-978920,Tb2Be2O5,0.3033988856944445
mp-1023255,CaMg6Sn,0.1331935846875001
mp-15382,TmP5O14,0.0
mp-780237,Li3Cu3(PO4)2,0.08503808296875183
mp-568228,RbLaSi(CN2)4,0.0
mp-961701,ZrAgB,1.4203659516666658
mp-19740,YInPt,0.0
mp-991520,MnNi2Sn,0.010760888645833688
mp-1011260,EuFeO3,0.013878835499999909
mp-13384,ErAg(PSe3)2,0.0
mp-767128,Li2CoSiO4,0.004594618124993843
mp-1099267,RbYMg6,0.28165315625
mp-1096687,NaPbAu2,1.1285633725
mp-867077,TiMnH12(OF)6,0.03109977769230898
mp-676076,Cu11Sb4S13,0.06884162703868757
mp-644672,Cs3VH8(Cl3O2)2,0.0
mp-765259,Li4VF8,0.08920639711537515
mp-24625,KHCN2,0.010733700499999443
mp-32397,LiNi2(PO4)3,0.1370403229166559
mp-984703,CeGe5,0.0
mp-600219,MnH12C2(NCl2)2,0.039005872619047637
mp-1074135,Mg4Si7,0.20950948328282948
mp-704226,Co5(P2O7)4,0.061258088216443525
mp-643409,Ba4Y(CuO3)3,0.0
mp-22771,Pu(MnSi)2,0.27704694962499943
mp-698617,La8Mn9O27,0.017593744318174842
mp-867196,LiCd2Pd,0.0
mp-560359,SbTe7SXeCl(OF4)9,0.04313073366071851
mp-1001785,MoP,0.6753818799999998
mp-769655,Mg2CoO4,0.06273452562500026
mp-1087540,CdCu2SiTe4,0.0
mp-555063,Nd2As4O9,0.0
mp-1016227,LaMg3,0.09799721625000046
mp-569883,Rb2(PSe2)3,0.0
mp-697756,Fe(PO3)3,0.0679758417948717
mp-1079391,Sr2LaCrO6,0.23367743950000985
mp-679927,Rb2Sc(NO3)5,0.0
mp-667372,Ba8Zr3(SbO6)4,0.0
mp-766868,CrCoO4,0.058018605000002665
mp-1094010,ZnGa4S7,0.10740684958333002
mp-25129,V4Zn3(PO4)6,0.008392336486486407
mp-676555,Ag8GeTe6,0.0731704940000002
mvc-8266,CaFeNiP2O9,0.026468095536754888
mp-983559,CePmZn2,0.0
mp-972093,Tm(Mg4Al3)4,0.02599156469496133
mp-22127,Yb2Ge2O7,0.02287250397726837
mp-505334,Dy2Mn3Si5,0.0
mp-628664,Ce2P3Au,0.0
mp-1007862,Fe3Ni,0.07379362749999974
mp-29375,Na3InS3,0.0
mp-639675,EuCu,0.0791250687499998
mp-685216,Nb12TlTe16,0.013197521634991992
mp-1078837,DyZnPd,0.0
mp-622755,In10(Pb2S7)3,0.004963257128379086
mp-1076418,La7SmMn2(Fe3O10)2,0.07073776789930443
mp-25014,MnGeO3,0.021314477374999363
mp-974611,RePb3,1.0284430887500005
mp-849363,Fe10O9F11,0.07975916866666742
mvc-11781,CaTi2F10,0.031527979615384887
mp-19602,Ba2CoO4,0.005637320357143594
mp-30366,Ca3Au,0.0005368862499999238
mp-706709,Al4P3(HO5)3,0.026287038300000454
mp-556095,Dy3S4,0.06289090892856297
mp-769246,Sr4Ta2O9,0.005323835666663611
mp-22865,CsCl,0.04779838500000011
mp-865029,LiPaRu2,0.0
mvc-13015,Cu3(SnO3)4,0.05399860526315869
mp-777147,Li4CrTe(WO6)2,0.0730539536562258
mp-563032,Ba21Si2O5,0.07586368482142936
mvc-7784,Zn(MoO2)2,0.11992235785714025
mp-570637,U3Si,0.0321448012500003
mp-761548,LiMnPO4,0.0897131102380957
mp-1028125,CaHfMg14,0.08621303812499992
mp-1078399,CsAl,0.2688630074999998
mp-758259,Li4Ti3Cu3(TeO8)2,0.0765602265178531
mp-12890,HfU3Sb5,0.0
mp-17524,GeAs2,0.0
mp-761459,LiFeSi3O8,0.031765326538444334
mp-1018677,DyScSb,0.0
mp-764762,Li(FeO2)2,0.08888930169642784
mvc-3041,Ba2Mg2Tl2Cr3O10,0.28474674578947035
mp-780931,LiMn2P2HO9,0.02903810920833116
mp-3612,NbSbO4,0.00028040250000671557
mp-24112,Rb2ZnH12(SO7)2,0.0
mp-1077341,YbCu4Ni,0.0669698133333343
mp-1079382,YMg7,0.06649081750000008
mp-18222,Lu4Ge6Rh7,0.0
mp-5831,Cu(SbO3)2,0.0
mp-4321,MgSiO3,0.019367247000001697
mp-568328,FeP4,0.012781697500013678
mp-758496,LiTi(PO3)4,0.09659079912301127
mp-866827,Ca3Sn2S7,0.1819534930208313
mp-977579,MgSbPd2,0.0
mp-24157,PH8N2O3F,0.0
mp-542432,Sr2MnGaO5,0.0
mp-23827,Sr7(H6Cl)2,0.0
mp-1095875,ScZnIr2,2.875578507500003
mp-761801,LiV2CoO6,0.07352880283334072
mp-862561,ScSbRu2,0.0
mp-8499,Ho2Cr2C3,0.0
mp-769945,Li3FePCO7,0.03724999423076891
mp-30456,SrLiBi,0.0
mp-863261,Sr2CdAs2,0.0
mp-566059,Nd2Te4MoO14,0.002640519464307545
mp-977187,La2MgTl,0.008045273055554691
mp-540042,Mn5(P2O7)4,0.037667989573177074
mp-18891,BaV6O11,0.03576426142362088
mp-1009735,ReC,0.26564133187499905
mp-1079701,UCoC2,0.0
mp-781068,Fe5O7F3,0.09250055924999943
mp-18468,Mn5SiC,0.04084596434782739
mp-36465,Al2FeO4,0.06642370928572383
mp-20599,PdPb2,0.0
mp-561455,Ba8Sb6S17,0.0
mp-1025024,LuB2Rh3,0.010108260555555582
mp-978521,SmZn2Cd,0.0019289995833338125
mp-1028183,NaCaMg14,0.056456391250000015
mp-762347,Sn2N2O,0.06407342704800012
mp-766653,V6PbO15,0.018075027613630112
mp-756313,CaPbI4,0.09926194708333336
mp-33797,Sr(RuO3)2,0.14577531222223514
mp-1100155,RbMg6Sb,0.2567878212500001
mp-866604,Ce3AgGeS7,0.0
mp-1022630,Mg6ZrZn,0.10157315874999996
mvc-5380,CaAgAsO5,0.07878876028645809
mp-672657,Hf6Co16Ge7,0.0
mp-1021497,Li2SiSnS4,0.0
mp-680401,U2Zn17,0.0
mp-977589,Tm2TlCd,0.0
mp-21523,La(In2Au)2,0.0
mp-555129,La3S3N,0.0
mp-1033732,Mg14BSbO16,0.3415803930208341
mp-684711,Zr3S4,0.008857486250001045
mp-560280,TeC6(ClF7)2,0.2092782045380428
mp-1098935,Mg30NiBiO32,0.07254341052734414
mp-31347,YInRh,0.0
mp-1100752,Li9Mn2Co5O16,0.18587742187496306
mp-775995,Mn3CrSn2(PO4)6,0.08786321229166205
mp-765205,CrOF4,0.08886063791668697
mp-1099093,CeMg14Si,0.16677591796875024
mp-766938,K3Li2Nb5O15,0.010763329466643157
mp-650285,Mn14Si23,0.5881027500000018
mp-976185,NaBeO3,0.4464347710000034
mp-736272,HgH16C6(N2Cl)2,0.15788691909482822
mp-752953,ZrTi2O,0.08554168000000928
mp-1096181,Ca2GaAg,1.6268922362500002
mvc-9907,LaMgCrCuO6,0.1816841765000028
mp-554856,Na2Si2O5,0.021035499166663918
mp-559440,V2(CuO2)5,0.028846420294118325
mvc-12570,Mg(NiO2)4,0.16244411794871727
mp-28475,H2Pb3O4,0.001868847777778626
mp-999440,Nb3Fe,0.3860492962499986
mp-631771,SrVF5,0.0
mp-568748,Fe2B,0.3852909033333329
mp-1009885,ZrN,0.3185073550000013
mp-1474,Re3P4,0.0
mp-770891,Ti3Cr3(SbO8)2,0.09948182614582812
mp-631270,ZnFePb,0.938986252307692
mp-556806,BaNa2(SiO3)2,0.014039349545451607
mp-765550,Li2VO3F,0.08351691999999478
mp-1027525,MoS2,0.0
mp-656241,MnH9C4NO6,0.10110335255952484
mp-1097407,V2TcMo,4.077123607500001
mp-636614,YPb2,0.0
mp-23700,RbH2OF,0.0
mp-865999,YbTlPd2,0.0
mvc-6882,ZnSi2NiO6,0.054634441041661035
mp-774323,Li4MnV3(P2O7)4,0.0025395764110278662
mp-673685,Li17(MnAs2)4,0.07337220112068987
mp-1021290,RbLiMg6,0.23640101874999986
mp-763525,K8Li13(FeO4)4,0.07411090031842793
mp-1019593,Ce(PO3)4,0.0
mp-1097361,NaHg2Au,0.5331991700000002
mp-764346,Li2FeSiO4,0.00503651406249972
mp-864797,NdCrSe3,0.0015910217499994776
mp-5431,BaTeO3,0.0
mp-1021166,NaMg6Si,0.1321863132500003
mp-867862,SmMgAg2,0.0
mp-771755,LiMnFeO4,0.05692188607142867
mvc-6030,Ca3Co3(AsO4)4,0.005627132664835166
mp-1095767,Mg2HgPb,1.153298466875
mp-25654,PWO4,0.10824372388887228
mp-18839,Pr2NiO4,0.07117796214285743
mp-703299,K2H2RhCl5O,0.4070725319696966
mp-8812,Rb2GeF6,0.0
mp-756861,LiLa4Ti3O12,0.029955215999979856
mp-863748,TbBS3,0.033530127875000204
mp-1023505,Mg6AlFe,0.21945645000000005
mp-673677,La2Th3O9,0.04168782928571346
mp-745203,Li9Mg12Fe(PO4)12,0.935848419451216
mp-12608,CuPt7,0.0
mp-761438,Li2Cr2P2O9,0.07922545655555258
mp-779890,Li2MnFe(BO3)2,0.0034743695833308053
mp-560516,Co(RhO2)2,0.0
mp-542816,Zr5SiSb3,0.0
mp-1097392,Hf2MnTc,3.9602097378125007
mvc-13985,SnF4,0.13025525199999954
mp-864969,Mg2PdRh,0.0
mp-773296,Mn3NiO8,0.07345103947916698
mp-28287,ReBi3O8,0.0
mp-766483,Li7(Cu6S5)2,0.015710419245690055
mp-23486,RbNiCl3,0.0
mp-773614,Mn3(SeO3)4,0.043078719035087865
mvc-8884,TiZnSn(PO4)3,0.0808626408101949
mp-1073935,Mg6Si5,0.17549142106060595
mvc-5076,Ca2FeWO6,0.0
mp-556273,S4N5Cl,0.28918166485450136
mp-9774,Ba4Sb2O,0.0
mp-582055,La7Ni16,0.0
mp-776226,Hf2N2O,0.0057288742499945755
mp-767731,Li12FeNi3P4(CO7)4,0.040291256538457
mp-765952,VF5,0.03415256416666779
mp-743745,Ca3La5Mn7CrO24,0.002824753875000141
mp-623988,GdCdPd,0.0
mp-650978,Ru5C14(SO7)2,0.1863393600000034
mp-769493,Na3Ni2P2(CO7)2,0.06381375976901538
mp-763196,MnOF,0.06864336541667093
mp-1028589,TeWSe,0.043610468750000735
mp-770660,Li12CrGa11O24,0.03287478541666733
mp-861625,LiZnAg2,0.0
mp-762258,Na2Sn4O9,0.04887377566666462
mp-866037,GaNiRh2,0.00537818249999944
mp-776212,Hf2N2O,0.004250194999995571
mp-19420,Sr2MgWO6,0.0
mp-568714,Bi,1.089647605
mp-1026588,Mg14SnB,0.19387372656250013
mp-1079394,LiDyGe,0.0
mp-1032362,Mg6CdCuO8,0.09113721312500013
mp-1080618,RuF3,0.011195588750000596
mp-778317,Ti3NbFe2(PO4)6,0.05497841923610913
mp-560186,BaMgSiO4,0.01696544321428739
mp-1025045,TiGaPd,0.0
mp-566531,K8Th(MoO4)6,0.009469990128204486
mp-570079,Al5C3N,0.047639013333333764
mp-1079587,YbPd,0.01974193124999957
mp-555741,RbAu(SO4)2,0.0
mp-571648,Rb2MnCl6,0.0
mp-1098547,SrHfMg30O32,0.11073472433594043
mvc-399,Mg2Nb2MoO8,0.08849780029914632
mp-1026894,Mg14CuSb,0.06586474812500033
mp-1096420,Hf2NiOs,3.888846793749999
mp-530787,Y6Zr22O53,0.11105265598764368
mp-1096978,Eu2Sc2O5,0.0352961698611125
mp-21484,PuGe3,0.0
mp-1017401,Mg6CdSi,0.11404555387500005
mp-865023,HfTc2Sb,0.0
mp-5224,BaSi2O5,0.003323940312501605
mp-763811,Na5MnHO4,0.025792045318183014
mp-1037969,SrMg30AlO32,0.06791305088541666
mp-864652,Nd3MnAlS7,0.0
mp-1021686,Mg6VGa,0.17214815958333365
mp-754434,Hf3N4,0.07344834964285774
mp-38077,KCe5S8,0.032805397500001554
mp-8645,GeTe7As4,0.012216621666665706
mp-1092256,Yb2Ge6Pt,0.08245709694444425
mp-1025201,Rb2PdCl4,0.0
mp-541,Ta3Sb,0.0
mp-1068906,CeSi3Ir,0.0
mp-4363,Ca3Sn13Rh4,0.0
mp-1039049,CeMg,0.06862383749999923
mp-19209,LiAl(MoO4)2,0.01461801417824393
mp-1028078,Mg14MnBi,0.06967235937500016
mp-555305,NaNb(OF)2,0.0
mp-1099871,La7SmNi6(AgO10)2,0.14342856532986836
mp-677177,RbAl6H20N5F24,0.3598852019285701
mp-1093798,MgZrZn2,2.1582802000000005
mp-540392,LiCrPO4,0.033062748452383765
mp-862424,Sc2TcNi,0.0
mp-561089,Ba3LaIr2O9,0.0
mp-780519,Fe3(OF2)2,0.09082721333333144
mp-20125,GdSi2,0.02636825666666809
mp-685871,Pr(FeSb3)5,0.0
mp-19555,RbMo2P3O13,0.0
mp-1023179,BaCaMg6,0.1745852188839292
mp-990911,PuAs,0.19620012999999936
mp-18555,KEr(SO4)2,0.000506386562498129
mp-753327,LiSiBiO4,0.021118910178573813
mp-769689,Cu(NiO2)2,0.004477265170072187
mp-1021310,HfMg6Ti,0.14255062854166667
mp-764799,LiFe2(BO3)2,0.056488418579570876
mp-559598,LiScF4,0.03367285333333303
mp-757527,LiTi6O12,0.035086247894726696
mp-1034395,BaMg14NbO16,0.2910888612499978
mp-3402,UTeN,0.0
mp-604120,PH6NO4,0.05413063395833628
mp-1095975,LaYPd2,2.249264267499999
mp-1093899,ZrCdPt2,2.3108669081250004
mvc-8349,MgCo(GeO3)2,0.006586508500037168
mp-8109,EuB4O7,0.0
mp-647813,Cs2CrO4,0.0
mp-675446,NaRuO2,0.1225734740625004
mp-1097242,YScAu2,2.3902561775000004
mp-10523,CeSiO4,0.03316791499999816
mp-11504,MnZn3,0.0
mp-779147,Ho2P4O13,0.02089996236841607
mp-974558,Na,0.0026936549999998505
mp-23364,CsLiCl2,0.0
mp-545735,Ba2NdRuO6,0.003165773500004576
mp-17633,Er2SiSeO4,0.02620338882812589
mvc-10172,CaV2O4,0.0433593515476165
mp-1033901,HfMg14CrO16,0.1821464485156259
mp-775232,LiCr4(PO4)3,0.0870420800833358
mp-1027761,TeMo2S3,0.059575544583332814
mp-567903,ZnNi,1.0838881375000002
mp-866115,Be2PdRh,0.0
mp-1021302,KSrMg6,0.2292708163839285
mp-530844,Ga23N5O27,0.06744230327272582
mp-27929,LaCl,0.12329204666666715
mp-2605,CaO,0.0
mp-570784,Hf2Al3C4,0.0
mp-557123,Na2CuSi3O8,0.008770241428561755
mp-780542,Li2Mn3CrO8,0.07358082500001561
mp-32850,Tm2Se3,0.0
mp-1076829,SrCa7Fe2(CoO4)6,0.10286988049998412
mp-15837,Nb5Se4,0.00647378088888928
mp-1095481,TiSiO4,0.1557009645833336
mp-554884,KCuF3,0.005987070999994515
mp-504921,Sc7CBr12,0.0
mp-865081,NaAcTe2,0.0
mp-581575,EuGeS3,0.00750788695833382
mp-543033,Ce3S3N,0.0
mp-35512,Dy5AgS8,0.03187892669642789
mp-1017488,RbLaMg6,0.2951131732954517
mp-35591,LiErS2,0.010444587499999436
mp-773698,Li4V3Cr3(FeO8)2,0.0402645754315305
mp-1078723,CeTlSe2,0.17084611302083275
mp-989405,Cs2LiInBr6,0.0
mp-626308,Ca(H8O5)2,0.052594403750000566
mp-2607,UGe3,0.0
mvc-6601,MgV2O4,0.09889107749998872
mp-998916,KO2,0.04586412166666687
mp-29889,Tl2PdCl4,0.0
mp-865179,Hf2FeOs,0.0
mp-1037235,YMg30BiO32,0.15464394436849016
mp-8858,RbCuF3,0.0
mp-779235,Li2MnSiO5,0.09237120733333892
mp-541661,LiZr2(PO4)3,0.01739982486110314
mp-759450,Sb5O7F,0.07811202081730784
mp-1075433,Mg5Si6,0.2098118585353564
mp-17025,Sr3Y(BO3)3,0.0025146508333353523
mp-40484,NaNd3Ti2(SbO7)2,0.00042248499999786304
mp-556786,LiCdPO4,0.00043035432539539903
mp-1027937,YMg14B,0.2433997915624961
mp-752407,Dy2Ge2O7,0.015076182045453912
mp-644893,Sr2Co2O5,0.00671273666666572
mp-779528,Ti17(NO4)6,0.03179898292808758
mp-566695,NdSbMo2O9,0.0
mp-645508,Ti4Cr3(PO4)6,0.052043241115665495
mp-769768,RbMn4O8,0.0008946007495005405
mp-580287,Zr3Cu,0.1325192375000004
mp-24986,TlFeC3NO4,0.6180988793036679
mp-20605,PbC2(SN)2,0.14156291837612311
mp-1078033,UGa5Rh,0.0
mvc-3410,MgAgF5,0.11009888214285947
mp-780877,Li2Mn3(BO3)3,0.05127390642155128
mp-559313,SiO2,0.009166449999998605
mp-1020724,Na7Al4P9O32,0.0
mp-745188,CrH12N3(OF2)3,0.20122046156515694
mp-775605,Li2Ni2SnO6,0.03683590489394195
mvc-10857,Al2(CuO2)3,0.3174661499999969
mp-1029025,TeMoWSe2S,0.06342373500000065
mp-4226,LiCrS2,0.0
mp-17388,Yb3Cu6Sn5,0.0014661390136061492
mp-1078562,SrAgSF,0.005117764374999112
mp-1022967,YMg6Fe,0.2542485612499989
mp-542829,Ho5Si4,0.02075503222222164
mvc-3900,V2Zn3(SiO4)3,0.1797963375416627
mp-541407,RbCuSnS3,0.0
mp-755612,DyGaO3,0.04795406559999371
mp-9909,Ba5Sb3,0.0
mp-1070214,Ba(MgAs)2,0.03833881800000016
mp-542523,Fe7(PO4)6,0.0
mp-568402,Sr(SiPd)2,0.0
mp-3010,Rb2TbF6,0.0
mp-762739,Li3Fe5O12,0.16060213281250044
mp-773505,Al2CrO5,0.03537427624997669
mp-555013,Tl3CO3F,0.005441678750000456
mvc-2622,Ba2Mg2Tl2Cu3O10,0.10976547460526476
mvc-12644,Ca(NiO2)2,0.15559781571428474
mp-1021506,La(P3Os)4,0.0
mp-614981,Ba2Nd(CuO2)3,0.0
mp-775900,NaLiCu(PO3)3,0.08571507505556131
mp-759878,RbMgH12(ClO2)3,0.0
mvc-9383,PrMg(FeO3)2,0.07087549618750089
mp-542808,RbGd(WO4)2,0.0
mp-1033344,Mg6NbCdO8,0.3478761861607156
mp-679983,CsP4N7,0.007518791805553705
mp-765266,LiMn2F7,0.07604354666665625
mp-1098637,KMg30AlO32,0.051610279169922
mp-766908,Li5VO3F2,0.08864888181817943
mp-961713,ZrSnPt,0.0
mp-9985,NbNiB,0.0
mp-1037737,YMg30VO32,0.06256500773437335
mvc-8763,MgTi2(PO4)3,0.008323615187833866
mp-631506,SrZrCo,1.268234220000001
mp-1079407,NiPW,0.018219153625734563
mvc-11566,Ca(CoO2)2,0.1116895675000018
mp-540005,LiPWCO7,0.05509651943181737
mp-3187,BaCeO3,0.0
mp-3470,MgSiO3,0.005957224250002113
mp-3602,YAl4Ni,0.0
mp-545529,NdBi2ClO4,0.0
mp-644272,HCN,0.3828634953044441
mp-8253,Na5ReO6,0.0
mp-694979,Na2TiFe(PO4)3,0.004389242374769786
mp-17133,Ba3(AlN2)2,0.0
mp-25706,MnH8(ClO2)2,0.01585564033333231
mp-12322,RbGd2CuS4,0.0
mp-560249,SiH8C2NClO,0.3924535197098216
mp-763075,Fe2O3F,0.07710318572917085
mp-767214,Li2AlPCO7,0.02921263166666677
mp-697660,Cu2H6C3N4O,0.15970899120791504
mp-567588,DyInRh,0.0
mp-30234,Cs2WCl6,0.0
mp-7424,BPd2,0.0
mp-849951,Li2Fe4OF8,0.055519831333335816
mp-865730,TiZnAu2,0.0
mvc-7362,Zn(CuO2)2,0.1249789028571433
mp-1067758,Bi,0.06713979000000014
mp-991434,CrGaFe2,0.08433957117187507
mp-1072104,GeO2,0.005551461666668089
mp-571171,Ga2PbSe4,0.0
mp-1076877,Sr2Ca6TiMn7O20,0.06094541704860035
mp-557006,Na2SbSO4F3,0.0
mp-1097400,KNa2P,1.1498691109722219
mp-1025204,Al2FeS4,0.15711751452381062
mp-1017354,Mg6CrSi,0.2463610381249999
mp-652402,Mn2Pt(CO)12,0.5474660238888918
mp-627077,Ba(HO)2,0.040235097500000094
mp-676040,NiPS3,0.0668955392400008
mp-540415,LiMnP2O7,0.02741058386363715
mp-771465,Li4Ti5Ni3O16,0.03392477726190268
mp-766575,Li8TiS6,0.06366498166666368
mp-757021,KGdO2,0.0
mp-1007854,FeNi3,0.11537373999999988
mp-1080424,ScAgGe,0.0
mp-9882,Y2Si5Rh3,0.0
mp-755481,Ca(ClO3)2,0.02833425111111243
mp-1100169,CsMg6W,0.6946724312500003
mp-761531,MnV3Ni2(PO4)6,0.030512327951393026
mp-777285,Li9P8W3O29,0.025606325569722088
mp-1038862,CaMg,0.17946963625000012
mp-1035096,Mg14TiCoO16,0.10843559335937504
mp-8947,Sr(BS2)2,0.0
mp-761319,Li2VP2O7,0.0709536146354166
mp-36751,In5AgS8,0.0
mp-685445,Nb20(O13F7)3,0.0745541738979103
mp-1029246,MoW3S8,0.0017847358333344945
mp-557909,Zr(PO3)4,0.0
mp-764030,V4O5F7,0.02855518625001708
mp-778928,Fe6O7F5,0.09761280815972384
mp-28999,Sn4B3Ir7,0.0
mvc-8654,VZn(Si2O5)2,0.12689276874999678
mp-1097015,KSnI3,0.0
mp-1009770,RuN,0.07727823631000064
mp-973283,HoLuAg2,0.0
mp-21173,In2CoS4,0.13515445422619
mp-12987,Ho2NiGe6,0.008278742777777737
mp-757483,Y6O5F8,0.00024172000000000077
mp-743671,K4Ti3Mn(PO4)6,0.0
mvc-493,Nb2Zn2NiO8,0.02375969307691861
mp-3435,Nd3Cu3Sb4,0.0
mp-11174,K2IrF6,0.0
mp-760582,Li2AgF3,0.0774721774999998
mp-541375,CdH4Br3N,0.016972793888888837
mp-705625,MgMn2O4,0.011865485142869224
mp-1069044,TbCoSi3,0.0
mp-690534,K3FeF3,0.5012089307142835
mp-510277,Ce3S2O3,0.0
mp-774421,Li3Fe8(BO3)8,0.06593531713661173
mp-640926,Cu(NO3)2,0.0031432700000459945
mp-11028,K3Hg11,0.0020126508095230644
mp-1077660,Sr8Fe7CoO24,0.011234704904238058
mp-556553,SiO2,0.0948963891666672
mp-567989,BH8CN,0.109334907424242
mp-774347,Mn3Fe(PO4)6,0.06815659683823673
mp-31596,CoReO4,0.08383757333335318
mp-540545,MnH8(BrO2)2,0.013845647333331712
mp-2744,LiPd,0.0
mp-568525,Sr2SnSe5,0.0
mp-773273,Li3VFe3O8,0.06104259266668066
mp-1087,SrS,0.0
mp-1019541,BaCa3O4,0.18136996874999944
mp-675349,DyCuSe2,0.0
mp-493,Co2B,0.02491183750000037
mp-776641,Na5CoO4,0.004335756499997068
mp-761464,LiFePO4,0.09995317249999937
mp-759717,Li2Cu3F8,0.044247099807692265
mp-989587,K2SBrCl6,0.0021410757990003573
mp-1042,HfSi,0.0
mp-19005,Y6WO12,0.0
mp-28196,KH9O5,0.004853822666667895
mp-780087,LiMnSiO4,0.07789084929297996
mp-862289,AcHg3,0.0
mvc-2157,MgV2O6,0.09745987944444412
mp-1076429,Ba2Sr6Co5(CuO8)3,0.045266142684377016
mp-1033722,RbHfMg6O7,0.40296097558333255
mp-722401,ZnH16C6S2(N2Cl)2,0.11785089082257992
mp-1288,AgO,0.042687830000000204
mp-565741,FeH12C2N2F5,0.07372850400568165
mp-697593,Te7WCl5O,0.03450110268601225
mp-1099139,Mg14MnCO16,0.2309809035546868
mp-28327,LiGaBr3,0.0
mp-32504,V3(P3O10)2,0.014226361206938876
mp-755470,Li2BiS2,0.09301264499999816
mvc-12579,VZnO2,0.2156528843749994
mp-1096484,CsK2As,0.9129523784722224
mp-1036461,Mg14AlCO16,0.2488567538476545
mp-541754,TiCu2Te3,0.0
mp-571641,PrCdPd,0.0
mp-768369,Ba2YF7,0.055620494750000304
mp-989639,Cs2KInF6,0.0
mp-762255,Li(NiO2)2,0.04083732750000113
mp-1038828,CaZn,0.011324984999997456
mp-567492,Ce2WC2,0.0
mp-1068387,LaGe3Ru,0.01720354312499861
mp-985584,Na3PS4,0.00572255999999971
mp-1097509,ZrScCd2,2.58022961875
mp-696815,AlH4NF4,0.0
mp-1022157,RbMg6Fe,0.4304829775000003
mp-772309,Li3Ti(CuO2)4,0.0666735903124982
mp-866849,Ca3Sn2S7,0.3568433955208317
mp-769570,Na3Fe2P(CO4)4,0.07749087259615095
mp-865193,Co3Pt,0.0
mp-765402,Mn3VCr2(PO4)6,0.08281639236109761
mp-762352,P(H3C)3,0.04888474423305933
mp-1037599,KMg30FeO32,0.05078149616211025
mp-1093788,Mg2AgPd,1.5774145875
mp-20278,Fe(BMo)2,0.9856548060000012
mp-762850,Li2MnNi3O8,0.05196462005952451
mp-558669,SrAl2B2O7,0.0
mp-620471,Cs3Te22,0.02222424719999916
mp-569788,LiZnGe,0.0
mp-868119,MoH18C5(NO)4,0.10274231275390733
mp-568345,Fe,0.7842520133333322
mp-1080029,Ba2Mn2Se2OF2,0.0
mp-756136,CaPbI4,0.08390459708333388
mp-17433,NaSr4(SbO4)3,0.022183335107143886
mp-29304,Y2InCl7,0.0
mp-697788,MnP2O7,0.1180495322499988
mp-567038,Ba2V4Cd3O15,0.0
mp-763173,Mn6O7F5,0.07375234798612773
mp-1032928,CaMg6CuO8,0.09018019218750163
mp-562041,BaCrO3,0.06818803658333472
mp-15799,NbN,0.2028021950000003
mp-989568,Cs2NaMgF6,0.0
mp-762481,Li8V3P8O29,0.018158107395799483
mp-30490,Mg3Cd,0.0
mp-559281,Na3Cr2(PS4)3,0.0
mp-647180,Co(IO3)2,0.0
mp-571270,NbSe2,0.013594489999999126
mp-761643,Li6Ni3P6WO24,0.08150354474999677
mp-779360,VOF,0.03857375208333469
mp-650451,Cs7Ni4F15,0.0
mp-673833,Li7VAs4,0.0
mp-1094425,Mg5Zn,0.036757932633333816
mp-1021779,Mg6VB,0.4279989512500002
mp-2359,NdPt5,0.0
mp-773743,NaLi2MnPCO7,0.050855567948717706
mp-972423,TbGa2Pd,0.0
mp-770398,NiSnO3,0.011459594999987388
mp-978833,SmYIn2,0.0
mp-532424,KAl11O17,0.007155671551724473
mp-27564,Na4B2O5,0.0
mp-1036103,Mg14MnBO16,0.21531672803187613