mpid,formula,e_hull
mp-637599,Bi2O3,0.35740410249999943
mp-19351,MnSi2O5,0.10004282671874698
mp-28743,K4Cu8Te11,0.004661449130435536
mp-4522,CaSiO3,0.2418400529999971
mp-1099629,K2Na6V5(MoO8)3,0.12323053512500334
mp-22257,Zn2PdO4,0.2775808864285718
mp-981391,Hg3Ir,0.4719737225000002
mp-1032272,Mg6CoNiO8,0.05129175781249984
mp-769517,NaMnPCO7,0.020643337500001024
mp-20725,PbO2,0.0
mp-18635,Sr6GaN5,0.0037223545833295897
mp-10783,RbHoSe2,0.0
mp-1078086,In2Ni3Se2,0.0
mp-779870,Li8Mn5Fe3(BO3)8,0.0029498701736088147
mp-1094113,NaV2P2O9,0.0
mp-15472,Ba4LiCu(CO5)2,0.0
mvc-12901,NiO2,0.17823010513888793
mp-561823,GeBi2O5,0.031193817083332576
mp-774318,Li10Fe3Co3(NiO8)2,0.08476752457430603
mp-766912,LiVF6,0.004219394374999297
mp-542663,Ce2SiTeO4,0.02626375531250069
mvc-1620,Mg(BiO3)2,0.11842899277777885
mp-1036,NpRu2,0.16330758374999732
mvc-5257,Ca2AlWO5,0.29643096290740445
mp-9628,KCdF3,0.0
mp-1090,FeSe,0.19460630500000065
mp-776032,Ba2YI7,0.0492393600000014
mp-38070,Rb(TeO3)2,0.0
mp-1027711,Te2Mo3WSe6,0.022456660833333864
mp-1999,Sb2O3,0.008896755500000353
mp-765994,Li10V(SiO5)2,0.08734980536231872
mp-760052,Hf2N2O,0.10032525583332763
mp-542160,Co3Ag2(P2O7)2,0.0037838270289896063
mp-621131,Ti3Ag,0.14307307583333362
mp-569815,Si2Ru,0.0
mp-1097374,La2InGa,2.376141857500001
mp-22858,TlI,0.023283962499999863
mp-1076766,La5Sm3VCr7O20,0.22532302980902585
mp-851255,Li4V3P8O29,0.04520715473485293
mp-770070,Li3TiCr3O8,0.0385467019999961
mp-765689,Li4Co3(OF3)2,0.07896761199999869
mp-770678,Li2Cr2O7,0.01876040155303293
mp-22396,Nb4SiNi,0.00901035722222332
mp-706250,Al2FeO4,0.09580399571429156
mp-766767,Li5Co2Ni5O12,0.03201318201388936
mp-686718,Sr5Al11TlSi13O48,0.10378042656379448
mp-565869,SrVClO3,0.0
mp-774332,Na2Co2O3,0.0167677623809519
mp-21667,CeZn(BO2)5,0.00387123852941329
mp-1026553,Mg14NbGa,0.09285827770833376
mp-27211,KSb4F13,0.0
mp-1078049,Zn(GaS2)2,0.00934560428571185
mp-12112,CdP2,4.4500000040414994e-07
mp-22276,Mn2InCo,0.21425294812499995
mp-625784,H2W2O7,0.3157847538636345
mp-1071904,PrCu2,0.0
mp-769048,Li3NbS4,0.07688951093750074
mp-1023273,Mg6NbAl,0.20057722754999974
mvc-8389,ZnNi(GeO3)2,0.021575346833332176
mp-531409,Li7Nb8O24,0.028277456137812962
mp-36779,PNO,0.025593043333333117
mp-554389,Ta3(BiS3)2,0.0
mp-20345,GdCoC,0.0
mp-773163,Li2Fe3SnO8,0.0
mp-31009,Ho(NiB)2,0.0
mp-22239,GeRh,0.0
mp-504923,V2Zn4O9,0.019335417333333105
mp-975519,Rb,0.006367860000000003
mp-1016254,CeMg3,0.09948317500000003
mp-10645,TbSe,0.5268574675000002
mp-1079702,Cr3GaP4,0.5273253390625001
mp-758527,K3ErSi3(HO5)2,0.0
mvc-11432,CaCr2O4,0.0
mp-12921,PrPIr,0.0
mp-19599,Ca3Cr2(SiO4)3,0.0
mp-991219,Fe8N,0.00432345666666656
mp-695515,Na13Zr8Si9(PO16)3,0.008095189814810944
mp-767032,Li2Mn4O5F3,0.07836791450893266
mp-763212,Li2VO2F,0.10512647416666354
mp-765216,VF4,0.02020647649999674
mp-754717,RbBrO4,0.03422119729166884
mp-27378,S4(BrN)3,0.12610680146750042
mp-2839,CeC2,0.05407629249999957
mvc-5150,MgWO2,0.6625211491666665
mp-1025888,Te2MoW2(SeS)2,0.10458846499999908
mp-28205,Na3ReO5,0.0
mp-1018799,MgSc3Ru2,0.0
mvc-8517,Si4SbO10,0.1727424216666611
mp-767016,NbVO4,0.010909158437435451
mp-10223,Na2PdS2,0.0
mp-1077177,Mg2Ni,0.21491056666666666
mp-742819,MoH12Pd(NO)4,0.0
mp-542565,Nd3Sb5Pd6,0.0
mp-16519,UAlNi4,0.060688853874643726
mp-9973,VB,0.0
mp-558317,KNaPrNbO5,0.0
mp-549389,Li4CO4,0.1843644944444449
mp-774376,Na5VO4,0.05596639625000055
mp-714882,MnO,0.0
mp-752754,Hf2N2O,0.1074145629999954
mp-30401,KAu2,0.005077798571434311
mp-3497,FeCuS2,0.11249777749999976
mvc-8320,MgCo4(CuO4)3,0.05876156551041677
mp-32798,La2Se3,0.0
mp-755559,LiNbO3,0.04662172099999928
mp-777658,Li3V4(OF3)3,0.08711599201755328
mp-780409,La4Al2O9,0.0
mp-554740,CdGe(BiO3)2,0.0002752640000016626
mp-644285,KAlH2CO5,0.0
mp-1097657,Sr2TlIn,1.6104461149999998
mp-540805,Ba2GeS4,0.0
mp-19937,NpSi,0.09076528531249828
mp-1095915,NaAg2Pb,1.2687921884375
mp-641112,ReO2F3,0.003210728437498034
mp-11033,TbAl7Au3,0.0
mp-707942,B5H2Pb2O11,0.04409404854762311
mp-569811,Yb11GaSb9,0.0
mp-543047,KNaCu(Si2O5)2,0.010788201397057941
mp-662600,La20Ti11(S22O3)2,0.0
mp-559820,LaSClO4,0.0
mp-775400,NaMnPCO7,0.007944503409092363
mvc-1181,Ba2W3O8,0.2752468776923074
mp-1036393,CaMg14CuO16,0.04749828046875049
mp-1094926,CeMg5,0.06903571250000029
mp-358,HgTe,0.06284489333333343
mp-554918,BaY6Si3B6(O12F)2,0.007199566666661994
mp-861991,PaMn2Al,0.0
mvc-6090,Mg2TeWO6,0.2513210481666697
mp-17262,BaCu2(AsO4)2,0.02505430615383997
mp-997101,AgO2F,0.01609317333333227
mp-638206,P3CN4Cl7,0.022771193732889827
mp-1037996,CaYMg30O32,0.06005977648437533
mp-867916,ScGaIr2,0.0
mp-768995,Ba2Y5Cl19,0.0975272919230772
mp-775068,Li4Nb3Fe3(NiO8)2,0.11779268142857102
mp-776184,V3NiO8,0.049594408541659966
mp-4202,BaAl2O4,0.0
mp-765744,Mn4O7F,0.06305251822917768
mp-1031642,Mg6CdNiO8,0.06690626250000076
mp-779594,Zn2As2O7,0.0
mp-1029442,Mg2TaN3,0.0
mp-1028912,Te2W2SeS,0.07469913458333366
mp-28395,B6P,0.0
mp-1033880,Mg14NbCdO16,0.17754915964285356
mvc-14240,Ca3Mn2(WO6)2,0.04521234595396173
mvc-3663,Ca3Si3(AgO6)2,0.10999833587500164
mp-1093604,Tl2HgSe,0.3808792235416667
mp-2217,LuCd,0.0
mp-2800,USi3,0.0
mvc-1081,Ba2YSn3O7,0.28987578259616953
mp-1098981,Mg14MnAlO16,0.10793415748500036
mp-976870,NaNi3,0.5232724962499997
mp-27438,TlBiTe2,0.0
mp-999121,TbTlTe2,0.0
mp-632485,Bi2Te2S,0.2207296259999998
mp-778895,Li4V2Si(PO6)2,0.08261181515872895
mp-979427,YHoZn2,0.0
mp-20004,Zr2InC,0.0
mp-755542,K2TiPCO7,0.11369176770833354
mp-9740,BaDy2PdO5,0.012027496388888892
mp-767407,Li5SbS,0.09162126964285733
mp-6805,K3Ga2(PO4)3,0.0
mp-1093888,Nb2CrTc,4.00941362
mp-761914,LiAgF4,0.01048893833333153
mp-631961,La5In3Br,0.0
mp-995434,Fe11MoC4,0.2262968113281243
mp-8640,Hf,0.07121624500000047
mp-699265,BH6Ru3C6O19F4,0.6357686664102573
mvc-3247,MnZnPO5,0.05065848822916319
mp-1066655,K3Rh,0.5507857599999997
mvc-10587,Mn4ZnO9,0.3610084972321399
mp-566189,BaMoSeO6,0.013121781111109064
mp-778718,Li2Cr2O7,0.01140685928030294
mp-1098381,KMg30WO32,0.0782377599609374
mp-646039,In7Cu10,0.0
mp-1073037,Mg2Si3,0.19003002461110974
mp-778743,Li5Cu(PO4)2,0.03232273734375024
mp-1094684,CeMg2,0.038783520555556006
mp-770505,Li4Ti3Cr2Co3O16,0.08991688430556087
mvc-9159,CaTiCo(PO4)3,0.005854035095484989
mp-761554,Co2NiO6,0.04325675157407538
mp-1075717,Mg5Si9,0.2478365331349193
mp-25513,KCrH18N6(ClO2)4,0.3751234166359936
mp-566590,MoP(Cl3O)2,0.05833756899999897
mp-25743,Cr3B7BrO13,0.0
mp-564,TePd,0.0
mp-2848,Pu5Ir3,0.0
mvc-11555,ZnCrF6,0.0
mp-1021878,Mg6CrNi,0.2262436962500001
mp-17702,Yb2SiO5,0.19710516992187527
mp-28912,MnInBr3,0.003003205999999814
mp-2898,Ca(AuO2)2,0.0
mp-672337,VGe3,0.3592851845220597
mp-685295,Sr22Nb10O47,0.1336720482278455
mp-977122,Li5Mg,0.006041916666666093
mp-20173,Ce(CuGe)2,0.0
mp-505543,Lu2CoB6,0.0
mp-19360,LuCrO4,0.0
mp-644097,BaAlH5,0.0
mp-862976,PmZn2Au,0.0
mp-547864,CdCO3,3.211951861
mp-561561,Cs2KRhF6,0.0
mp-1033923,Mg6AlNiO8,0.2100239428124997
mp-773377,LiFePO4,0.016686659999998632
mp-1025586,Te2W3S4,0.08362988361111158
mp-771996,Li3Mg2Fe19O32,0.049231634910715805
mp-672984,LiCu(PO3)4,0.04590951797455034
mp-23140,AgHgSI,0.0
mp-645709,SnSO4,0.0040235612500003634
mp-773213,Li3Fe(BO3)2,0.00021512145832769392
mp-684621,Cu13I15,0.01323699946428647
mp-569745,YbMgSn,0.0
mp-1017465,BaVO3,0.1590535822972976
mp-29386,K6Sn2Se7,0.0
mp-567690,TbMg4Cu,0.0
mp-1269,SmS,0.0
mp-735536,BaV2H2(Se2O7)2,0.0
mp-978274,MgCd,0.016873295833333524
mp-761810,VNi3Sb2(PO4)6,0.09370387638889087
mp-12017,CeAl4Ge2Au,0.0
mp-1099335,BaMg6Si,0.22413825749999994
mp-18503,Al2Re3B,0.5441449504545428
mp-20903,PrIn3,0.0
mp-862790,FeSiTc2,0.003444995833332243
mp-645330,Cs4CO4,0.2255446944444461
mp-1039288,Ce2Mg,0.11782099944444367
mp-1066,YbN,0.3205168881249998
mp-721300,Ca2B5H2ClO10,0.0037089904999980656
mp-540615,Nb3Se5Cl7,0.0033258289888857817
mp-30846,Sn3Pt2,0.0
mp-775931,Li2FeS2,0.12972628325000102
mp-765215,VF4,0.009413668500003249
mp-18830,Fe2PO5,0.024313409374990158
mvc-10479,CaW4O9,0.3289011037499989
mp-778983,Li6MnV3(PO4)6,0.03183166950001226
mp-861995,PaNi2Sn,0.0
mp-17012,Sr2VN3,0.0
mp-773055,Li3Mg3Ti6O16,0.01425881107142324
mp-1069357,Eu(CuSn)2,0.0
mp-868601,Li4Ti2Mn3Co3O16,0.037824815999981
mvc-5626,MoAsO5,0.16476431455355645
mp-669427,RbCuPO4,0.04366281607142497
mp-31703,CrOF3,0.17267312775000487
mp-31132,Hg4OF6,0.0
mp-1057464,Er,0.011394450000000056
mp-9488,SmOF,0.0
mp-1033847,Mg14CrBiO16,0.2028962467057296
mp-541162,Ba2Mg3F10,0.006406213999997412
mp-865896,YbPmAg2,0.0
mp-980193,Ti2H4Pd,0.08514782342857075
mp-764645,Li3MnF7,0.0633514030303024
mp-1028223,LiMg14Al,0.017482241250000197
mp-542885,SrCrO4,0.0
mp-1022545,Mg6ZrTi,0.1122595229166663
mp-774520,TiAlO3,0.06582911000000102
mp-707342,ZnH18Ru2Br7N6,0.034029528081273235
mp-570293,Nb5Ga3,0.008325635937501906
mp-752651,Li4Ti2Nb3Cu3O16,0.11252711104911484
mp-1079594,Ca3ZnSe4,0.2449485650000005
mp-25604,NiPO4,0.07679439010416013
mp-561003,KSn4(PO4)3,0.001153320250000256
mp-27528,Cd4As2I3,0.00628184465277748
mp-560649,KLa(PS3)2,0.0
mp-570018,Ce3Pb,0.0
mp-6501,BaHo2ZnO5,0.018800184351849047
mp-2637,YSe,0.0
mp-5909,Zn2GeO4,0.0
mp-675275,Tl2CuF3,0.09534919361110994
mp-626550,Ti3H2O7,0.03647492083332793
mp-541545,BaVAsO6,0.0
mp-775461,Li2V3FeO8,0.01984274822913079
mp-566792,Bi10(MoO8)3,0.0
mp-764852,V6O5F19,0.02754662141665332
mp-554255,Ba3(PS4)2,0.0
mp-998781,TlNiO3,0.3034230547083325
mp-28074,RbPaF6,0.0
mp-8585,Pd(AuF4)2,0.0
mp-1979,HoPd3,0.0
mp-571352,TmB6,0.0678800488095277
mvc-9491,Zn(CuO2)2,0.05179380404761957
mp-610190,Zr9(In2Co)7,0.0
mp-28485,Sb5IO7,0.01853149451923031
mp-1016076,CrN2,0.5030417079566654
mp-31707,CrPO4,0.11349683895833353
mp-867343,Li3Cd,0.0022712725000000322
mp-562231,Ta2CoO6,0.013228312777778584
mp-764733,Li5Ni5O9F,0.031641260250000684
mp-2631,Ba4Al5,0.0
mvc-7971,ZnNiBiO5,0.2166647475781253
mp-984707,ErTa3,0.3642562512499996
mp-1032744,YMg6CuO8,0.15252140171875084
mp-541818,Rb4(BSe)9,0.0
mvc-2108,AlCr4(CuO4)3,0.2216465226250248
mp-630329,PbSeO3,0.002975649999990005
mp-975729,Pr(BRu)2,0.0
mp-775679,Li2Mn3CrO8,0.0
mp-680384,Sr10Ga6O19,0.011892723071425415
mvc-11162,NiN,0.8767145317066678
mp-1076204,La7SmCr2(Fe3O10)2,0.11698598880208345
mp-1009756,Ca2Pb,0.038837871666666864
mp-631339,Na2LiTa,1.25134231
mp-756177,Li4ZrNb(TeO6)2,0.057603024395806564
mp-32494,LiV(PO3)4,0.04368196986111972
mp-1094936,Mg2Cd,0.015938723333333682
mp-1063678,H3S,0.5007802628450007
mp-570219,InBr3,0.0
mp-556151,H9C3N3O2,0.07061236426470607
mp-759071,LiSb(PO3)4,0.0616136011110946
mp-690512,MnPbO3,0.12550296212500367
mp-23691,Tl(BH)6,0.0
mp-27221,Ca2Hf7O16,0.0018948595000001234
mp-631305,Ga2WSe,1.0574202825
mp-867928,ScGaRh2,0.0
mp-23335,Ti3(BiO3)4,0.06265117289473654
mp-5920,LiAlGe,0.0
mp-865156,Dy2ZnGa,0.0
mp-1034164,SrMg14TiO16,0.14678606593749688
mp-1095223,OF2,0.0
mp-780633,Ni3OF5,0.0681569849537027
mp-1079836,GaSi3C3N,0.06857406210937532
mp-1093903,AlVRe2,4.106997532368421
mp-775096,MnPHO5,0.0240000838281258
mp-3491,NbSbO4,0.0
mp-555910,Li2Yb5B3O13,0.03419332818840548
mp-20458,PtPbF6,0.0
mp-95,Sr,0.008636890000000008
mp-1068250,Ca(FeSi)2,0.00802752262500217
mp-770857,V(SbO3)4,0.05485590772058392
mvc-480,Nb2CrO8,0.2535060767045447
mp-560490,La2C2N4O,0.0
mp-1097403,SrYPt2,1.981991492897727
mp-695771,Eu(Ni3S4)2,0.06951090024999829
mp-11832,Cs,0.007414329999999914
mp-1097849,Ce(SiIr)2,0.16117335600000082
mp-1100148,RbMg6Mo,0.4533555762500003
mp-763960,VOF2,0.0015712513020895713
mp-18327,Ba2Tl2O5,0.0
mp-1080188,TeMoWSe3,0.04248436916666698
mp-1021362,Mg6TiBi,0.11831479666666622
mp-675143,Eu(GdS2)2,0.012531799285715906
mp-2195,LuMg,0.0
mvc-13126,Ca5Sc2(CoO6)2,0.03767242595238063
mp-773901,KZnP2O7,0.08654072113636158
mp-773276,Li2Mn3O6,0.09540493164771746
mp-22493,YInAu2,0.0
mp-765736,NaNi5O6,0.013966447499996093
mp-560278,Er3B5O12,0.0
mp-28826,Gd3(MnC3)2,0.0
mp-676693,KCN,0.7613178162500001
mp-764833,Li4V3(OF2)4,0.0484471685672645
mp-1094561,MgSb2,0.18703725638888927
mp-1070151,K(FeS)2,0.0
mp-581217,Cs2Nb4O11,0.0
mp-545760,Rb4CO4,0.20737908111111114
mp-628614,Ce2Si7Rh15,0.0
mp-12558,LiMgAs,0.0
mp-38347,Ca(Pr2Se3)4,0.015054059065930048
mp-1073722,MgSi,0.17282753805555506
mvc-9098,MgP2(WO5)2,0.15163955796296769
mp-761613,LiVSiO4,0.07070268651785573
mp-30990,K6Si2O7,0.0
mp-1022875,YMg6Zn,0.0904719387499977
mp-696272,HgHNO4,0.0
mp-1094544,ZrSn,0.2351682288333317
mp-761971,LiLaNb4O12,0.07915593212962335
mp-761374,Li3V2(PO4)3,0.04510601562500316
mp-24871,K3Co(NO2)6,0.047902569395579235
mp-754794,La2S2O,0.00907892900000018
mp-14883,Ba4Zr3S10,0.014616277647015785
mp-769756,Co(BiO3)2,0.02122592518518473
mp-1026641,LiMg14Ti,0.0662284764583323
mp-1095953,Zn2PtAu,1.5901043387499998
mvc-9736,MgTi2O4,0.028944821904758555
mp-571458,RbGeI3,0.025356767999999967
mp-626417,CsH3O2,0.0
mp-766753,LiSi4NiO10,0.05253444920572914
mp-556058,Na2RuO3,0.00048707708334028166
mp-1026731,CsRbMg14,0.21106036562500008
mp-20776,U(CoGe)2,0.04490190999999832
mp-1009832,TaC,0.5196830549999998
mp-699587,MnSi6Pb8O21,0.0
mp-780240,Gd2P4O13,0.019498988289489816
mp-505402,Cu2WO4,0.0765144635714261
mp-627380,Mn(ReO4)2,0.0
mp-771790,V3NiO8,0.08246238687499385
mp-19367,NaCr(SiO3)2,0.0
mp-4291,Ho(NiGe)2,0.0
mp-763346,Li2Co2C2O7,0.0811079063461504
mp-1078820,DyMgAg,0.0
mp-1039636,RbMg30CO32,0.22403019948241987
mp-561902,CsAg3S2,0.0
mp-22964,PbClF,0.0
mp-1035309,CsMg14BiO16,0.34741582796875026
mp-38970,Ga2Te3,2.4934666669196304e-06
mp-18793,LiCrO2,0.0
mp-21009,EuSe,0.0
mp-1077512,LaGeIr,0.0
mp-777888,LiFeF3,0.03442124999999585
mp-437,MgAu,0.0
mvc-6472,ZnSi2SnO6,0.09901036366666373
mp-22233,Zr4Co4Ge7,0.0
mp-1008986,IrN,1.2936693038100011
mp-763077,Li4Mn3V3(WO8)2,0.04255581890625315
mp-721098,Ca3SiH30CSO25,0.01880172086065457
mp-779236,Li3VP2HO8,0.042174089052082316
mp-1163,UBe13,0.0
mp-1034443,Mg14TiVO16,0.08222793742187484
mp-566438,Na3VB6O13,0.0028683840217231804
mp-556056,Pr10S14O,0.0
mp-677392,Yb2Ce8O19,0.043632754439652637
mp-1016831,HgIrO3,0.4045551645000005
mp-31928,LiMnP2O7,0.014451430909090844
mp-5990,CsLi(B3O5)2,0.0002478901388975885
mp-1096758,CuSnPd2,2.0497351106250004
mp-1033278,HfMg6SbO8,0.55742717734375
mp-777867,Li2P8W3O29,0.02505051265873792
mp-1095934,Ba2ZnAu,1.37821384
mp-849238,Li2MnSiO4,0.009990082499999886
mp-757301,LiSn(PO3)3,0.08800521485119006
mp-567368,Zr3(VGa2)2,0.02774393824074384
mvc-14226,ZnWF5,0.08747713892857156
mp-772222,TmClO,0.07069426833333381
mp-1078511,CuAsPtS2,0.0
mp-1023416,KMg6Al,0.2122413848076925
mp-1077230,SrMnGe,0.14601059000000127
mp-1026829,KMg14Cd,0.1013481206250002
mvc-1009,SbP2O7,0.1610656016250136
mp-1039390,Ca2Mg,0.06656659333333415
mp-6957,Ce(FeP)2,0.0
mp-1030332,Te4Mo3W(SeS)2,0.060909895833334275
mp-625583,H7BrO3,0.03177750272727664
mp-20809,Cr4InCuSe8,0.0
mvc-2995,SrMnZn(PO4)2,0.028806420576922964
mp-2563,CeSe,0.0
mvc-11925,MgBiPO6,0.2307063779861105
mp-24012,HoHSe,0.0
mp-861980,PaGaTc2,0.0
mp-570692,In5B4Ir9,0.0
mp-770487,Li3V3(BO5)2,0.06237784222223741
mp-601924,BiH24C6(I2N)3,0.0687974769999995
mp-1068256,USi3Ir,0.006905014788461728
mp-760447,Tl2(PbO3)3,0.08828407553570461
mvc-8321,MgCr4(CuO4)3,0.06988487062500147
mp-1096017,NaHg2Sb,0.74632370875
mp-774289,V5O12,0.09886194823532612
mvc-13364,CaCr2O6,0.3137329966666789
mvc-4667,CaTiO2,0.25515222750000177
mp-1084762,MnRe(PbO3)2,0.05265553449999949
mp-995225,CsBaSiHO4,0.04460750729166474
mp-766918,LiMnF5,0.015138145505958713
mp-554059,Sr2UZnO6,0.053385692500000026
mp-1028088,CeMg14Zr,0.0889798468749996
mp-23227,CuBr,0.04142656500000008
mp-540352,LiCoP2O7,0.02475508136363657
mp-13172,YMgCu4,0.0
mp-865130,Hf2MoRh,0.0
mp-1096080,Y2GaCu,2.643963420625
mp-542019,Np5Ge3,0.3242757462499988
mp-27862,UTa2O8,0.4562728336363655
mp-557629,V4GeS8,0.00034337846153942314
mp-697766,LiMn(PO3)4,0.034931174305556915
mp-972380,Tb3ReB7,0.0
mp-972051,YbGa2Pd,0.0
mp-772153,Na3CuAsCO7,0.01123989865382935
mp-21380,PtPb,0.27382578749999986
mp-554513,Tl(CoS)2,0.05551883662499879
mp-964,Cr3S4,0.018943189285722358
mp-15252,Cu2GeS3,0.0
mvc-14154,YMoO3,0.0
mp-637251,Cs2SiSe4,0.0
mp-1096285,Li2CuAg,1.109063028333333
mp-774360,Mn2V3Ni(PO4)6,0.008007752083338815
mp-35200,AlO3,0.5441598582812501
mp-1016582,BaMg6Cd,0.16173947431034374
mp-13089,Cu2SnTe3,0.0
mp-864916,Hf2TcRh,0.0
mp-767953,Li2Si3NiO8,0.08215777142857482
mp-1016058,CrN2,0.3233415367066659
mp-764777,CoOF,0.11295913180555585
mp-1095498,Ba2Ni5Ge4,0.0
mp-9660,Sr2Cu(BO3)2,0.016446448636365574
mvc-8595,Ti2Zn(PO5)2,0.1315363656111126
mp-628967,SrCrP2O7,0.0
mp-604420,LiAlSiH2O5,0.12343034458333245
mp-653788,MnC4IO4,0.5531618892499992
mp-6637,MnAg4(SbS3)2,0.040890145769230564
mp-1153,Li2S,0.0
mvc-16769,Y(CrS2)2,0.07570310389880852
mp-9263,KErTe2,0.0
mp-1023619,Mg15Zr,0.02176511687500016
mp-11815,SrSbAu,0.3154677160185173
mp-32415,VP2O7,0.003248608999994573
mp-23838,Zn2PH2CO7,0.0206014620192283
mp-11547,YTlPd,0.0
mp-1038548,HfMg30NbO32,0.1241642169140631
mp-758376,Li3Sn2(PO4)3,0.08995578070833155
mp-780570,Ti(SO4)2,0.003300201893937427
mp-758750,LiCuPO4,0.09910308750001297
mp-1094093,NbC,0.14600865520833214
mp-2537,NdS2,1.5220375333333331
mp-31850,Li3Fe3(PO4)4,0.02178770230769533
mp-1938,Al2O3,0.09336438900000044
mp-10716,YbRh3C,0.0
mp-1022049,Mg6CoSi,0.2940333478124999
mvc-959,CaCrO2,0.31536607979166664
mp-1076481,K5Na3Nb5(WO8)3,0.019056491562498223
mp-1079553,CeInRh,0.0
mp-771127,Rb4TiO4,0.0
mp-865092,MgGaNi2,0.0
mp-1032337,Mg6TiCoO8,0.21135735984374995
mp-3960,CaUO4,0.0
mp-1008673,TmCd2,0.4180872333333336
mp-565371,K2MoO8,0.3870868451515159
mp-1095822,Zr2PtRh,3.3984535337500006
mp-697810,Fe3(PO4)4,0.11204677711050692
mp-763919,LiCo2OF3,0.056372578928571386
mp-7475,La2S3,0.0
mp-17113,Sm2Ru2O7,0.007686745795453475
mp-1097302,Ti2NbRh,3.698191767499999
mp-637223,MnFeC5N6O,0.4727675349914282
mp-647833,RbNi2F6,0.01896813416666809
mp-1079334,SrTcO3,0.0
mp-1039255,Mg2Cd,0.03584196750000035
mp-1098813,YMg30CrO32,0.06762679351562627
mp-1071257,Mn2Sb,0.1227209833333358
mp-1096734,V2CrMo,3.8729451950000007
mp-863024,RbBaTaS4,0.0
mp-766117,Sn2N2O,0.06813030179799995
mp-570300,MnTlCl3,0.0
mp-7167,SmRh3C,0.0
mp-22318,SrAl2,0.0
mp-8430,KLiS,0.0
mp-3147,Er(SiAu)2,0.008602464000001753
mp-16520,NpAl4,0.0
mp-755277,Tb3SbO7,0.0
mp-952967,Fe7Se3,0.26666229900000005
mvc-14687,YSbO3,0.2826813720555519
mp-779894,Fe6O7F5,0.08641696982638969
mp-568556,Mg2B24C,0.0
mp-6044,Sr6B(PO4)5,0.0
mp-1028181,CaMg14Si,0.12084415562500014
mp-1019108,SmCoSi,0.0
mp-999542,MnFe3,0.06064818000000116
mp-775164,Li2NbCr3O8,0.008238491428564032
mp-1027475,TeMoWS3,0.060132281666667176
mp-705344,CdFeSn(PO4)3,0.0
mp-770616,Li2Cr3BiO8,0.02085951781746509
mp-567228,Na2PSe3,0.0
mp-22423,BaLa2CoS5,0.04918306175925037
mp-571167,NdNiSb3,0.0
mp-866187,Ti2ZnTc,0.0036836824999992852
mp-556288,Li2ReO3,0.20929253827381533
mp-778026,Li2MnF4,0.01941146571428653
mp-680552,Nd3Sn13Rh4,0.0
mp-1101048,TiFe2O5,0.01631094375001219
mp-866087,MgSiRh2,0.0
mp-1095594,TlAgS,0.015119026666667425
mp-868759,Mn15O32,0.09884241180851117
mp-31769,Sr(FeO2)2,0.023451135535710318
mp-774309,Li2MnV(P2O7)2,0.00646369714019901
mp-989511,Cs2AsBrCl6,0.006901222000001539
mp-1026497,Mg14CrW,0.2229037706250004
mp-20657,Li2BPd3,0.0
mp-1034607,NaMg14WO16,0.08057324421874945
mvc-5217,Ca(CoO2)2,0.14419648214284386
mp-771196,Li8Mn12Ni4O31,0.022022275214264475
mp-22503,ZrCo2Sn,0.0
mp-638650,Pr7FeI12,0.0014990573076927305
mp-761627,Li7Mn7(P4O17)2,0.0732798827678609
mp-32584,Ti19N25,0.3706611928572697
mp-8487,CaSbPt,0.0
mp-1094023,V2C,0.3029860674999991
mp-1066634,CrInCu2,0.19255517421052648
mp-25762,LaFeGe2O7,0.0
mp-765175,Li6V3P8O29,0.02250208958334632
mp-767900,Li4Si3NiO9,0.08257004102941856
mp-568932,Cd2Os(CN)6,0.07755209334933523
mp-651682,Cu3B7IO13,0.023543751701388338
mp-1028771,Te2W2SeS,0.07511111541666704
mp-1076119,La2Ag2O5,0.13881002611111093
mp-570987,Ce3Al,0.01293896187500021
mp-29551,Na3Hg,0.014115958958333287
mp-18667,TbGe2Ir,0.0
mp-770284,SmTaO4,0.017825374166667633
mp-556179,Pr3Si2S8Cl,0.0
mp-585189,LiMn4(PO4)3,0.04531342974999575
mp-861540,Li4Mn(PO3)6,0.06283195681030129
mvc-9000,MgCo2(PO5)2,0.1251397312777689
mp-1022818,YMg6Ti,0.14533039416666638
mp-1079088,NaAsF6,0.0
mp-867739,Nb3GeS6,0.0
mp-761034,Hf5N5O2,0.07117556291666816
mp-8479,Tl4SiS4,0.0
mp-1066078,BiPt,0.0
mp-566887,Fe3B7ClO13,0.0
mp-680682,K3Ga13,0.0