mpid,formula,e_hull
mp-1028362,Mg14NiSn,0.06150251874999979
mp-23837,NdH3(CO2)3,0.049536810192301495
mp-568157,H8C2BrN,0.04912641520833372
mp-770881,Mn2BeO4,0.03661213187500678
mp-850240,Li2Mn3(SiO4)2,0.04989428205555413
mp-773186,Tb2WO6,0.033492439444444244
mp-764895,LiVF4,0.023358551666675886
mp-24136,Cs(BH)6,0.0
mp-14406,Ba2Re6S11,0.0
mp-972965,GdF3,0.0
mp-865306,Tm2CuOs,0.0
mp-849446,LiMn3P3O11,0.05737877611109887
mp-574458,Zr21Re25,0.0
mp-696298,BH2CO,0.6900716804166667
mp-762160,LiNiPO4,0.0951211919642896
mp-1078635,ScGeOs,0.0
mp-505228,Sr5Nb5O17,0.0
mp-31711,LiCr2(PO3)5,0.041840667137681635
mp-1040242,KMg30WO32,0.0799784454296848
mp-27273,Ti9O17,0.016434228653819716
mp-22555,RhS2,0.0
mp-853258,Li2V2(PO4)3,0.009889220921048823
mp-565487,VH14C4NO2F3,0.11297328129166573
mp-569450,LiB6C,0.0
mp-22228,DyCoSn,0.0
mp-976797,Pm3Sc,0.04318158687499984
mp-990972,ErNi5,0.0013301633333338005
mp-985280,Co3Bi,0.4302215687500004
mp-1071036,TbScSb,0.0
mp-20781,RbHg(NO2)3,0.8826433558947455
mp-19027,Na5CoSO2,0.012245121944453707
mp-972467,TbNiB4,0.0
mp-767996,Li3Fe2(SiO4)2,0.03882311183332288
mp-25655,Pr(WO4)2,0.08913583119318247
mp-1020723,Sr2Ga2O5,0.011778858888890298
mp-22534,SrRuO3,0.533844575999999
mp-29961,Sr(C2N3)2,0.08298444981636344
mp-572291,K3ClO,0.0003502354999911361
mp-13413,ThCu5Sn,0.0
mp-12262,CsBeF3,0.0
mp-569281,HoB4,0.0
mp-989649,CaMoN3,0.0265904809999995
mp-1097048,LaCuO2F,0.3205610649999997
mvc-10713,W4O9,0.1646358434911246
mp-600237,Ag(CO)2,0.4228697832500021
mp-566524,Rb2MoSeO6,0.0
mp-1040003,LaMg30BO32,0.16304670441840585
mp-760323,Ce5O9,0.013626107142856723
mp-1095847,BeCo2P,2.8049730056249995
mp-764147,KLiH2WO5,0.004473861000001023
mp-1037239,Mg30NbCuO32,0.07461087911830068
mp-758849,CuSn(PO4)2,0.04357027583333117
mp-557096,NiS2,0.0
mp-1025565,HoO3,0.4466362835937492
mp-28722,Pt(SCl3)2,0.028707277222222324
mp-653243,Ru4C14O13,0.2509802001612922
mp-1077723,Zr,0.019505086666665502
mp-2068,RhF3,0.0
mp-1028059,Mg14MnMo,0.16258623687500062
mp-6952,RbYbF3,0.0
mp-622521,BaNd2(MoO4)4,0.004659404347840734
mp-760230,Bi5O4F7,0.023180276875000242
mp-558382,Li2SO4,0.05488636357142518
mp-772535,LiNb13O33,0.014796109787232226
mp-555554,KGa(PO3)4,0.0
mp-568695,CaCdSn,0.0
mp-4393,Cs4U5O17,0.0
mp-556659,La3TiCl5O4,0.00364753346153801
mp-531778,Mg17(As3O16)2,0.0
mp-561072,Sr2DySbO6,0.0
mp-5957,EuTaO4,0.0
mp-1014265,Zr2N,0.0
mp-768766,Tb3SbO7,0.02237515409090917
mp-1095027,Dy2CuGe6,0.04159345462962971
mp-999256,Sc2MnC,1.16762733875
mp-556775,ZnS,0.0009808249999969654
mp-1022236,CeMg6Fe,0.1995947331250001
mp-983513,PmRuO3,0.38912624474999896
mp-558523,PAuClF3,0.0
mp-14824,Sr2HoCu3(PbO4)2,0.0257829321093741
mp-18132,K4SnSe4,0.0
mp-1087499,NiPPd,0.025603844637682727
mp-768048,Li4VCr3O8,0.009103787500001737
mvc-3002,Ba2AlTlV2O7,0.38109092702572855
mp-1080472,Pt(NCl3)2,0.9798054199207415
mp-3443,Cd(GaO2)2,0.0
mp-620058,PbN6,0.09284288581714506
mp-1068773,LuAu4,0.0
mp-780362,La(ClO4)3,0.0
mvc-4135,Al(CuO2)2,0.13128971500000294
mp-37680,LiGdSe2,0.012900378750000384
mp-23221,PrBr3,0.0
mp-3772,Cd(GaSe2)2,0.0
mp-11690,Tc2P3,0.004801166999999218
mp-851018,Li5Mn6(BO3)6,0.0331165688333126
mp-694922,BaLa5TiCr5O18,0.021483867916682442
mp-2579,HoPt2,0.015446302500000897
mp-15541,KNa2Si12(BO10)3,0.0
mvc-15400,Zn2NiN2,0.18929373575070407
mp-7623,MgAs4,0.0
mvc-864,Sr2AlCu2NiO7,0.13549225973288606
mvc-8104,Ca2Ni3O8,0.1260307027403842
mp-765065,Li2VCrP2(HO5)2,0.0018181196296289672
mp-760408,LiZnO2,0.07479771125000045
mp-1058377,RuN,0.7247600213099991
mvc-4254,Mg3Ti2(Si2O7)2,0.11119162918478233
mp-541083,KPH5C2S2(NO)3,0.05750720133584064
mp-3397,Ba2TiO4,0.0
mp-558007,Sm(IO3)3,0.0
mp-532700,Sr3La21Zn2(Cu5O24)2,0.05773668833331148
mp-679989,Bi(Mo2Cl5)3,0.0
mp-1093638,Zr2TcMo,3.9989451721875
mp-773538,CrFe3Cu2(PO4)6,0.05900637642626805
mp-764251,NaLi2CoPCO7,0.028295998846156856
mp-850034,MnS,0.06038237749999986
mp-15950,Li(SiNi)6,0.002855394155354851
mp-647589,La6Ge11,0.0
mp-864925,NdMgZn2,0.0
mp-27337,Xe(OF)2,0.5317651905000003
mp-28755,GdCBr,0.0001870850000003088
mp-752420,Ba3Y2F12,0.019966394117646225
mp-555078,Ba3SrSb2O9,0.0
mp-1076319,Ca2Fe2O5,0.01506871305556601
mp-567589,DyAl3,0.009321443749999323
mp-778857,Li5Mn8(BO3)8,0.06283470846294392
mp-978549,SmLuZn2,0.010250532500000187
mp-1021344,Mg6TiNb,0.2370295316666664
mp-12834,ThCu6,0.0
mp-13466,Sm(SiAu)2,0.0
mp-23072,BiBrO,0.0
mp-22987,BiIO,0.0
mp-763297,CoP4O11,0.005987177187445347
mp-707494,B11H9C(Br3O2)2,0.4605383247700132
mp-568121,Mn4Si7,0.0
mp-743872,VPH5NO6,0.0694664949121746
mp-675293,Yb(YS2)2,0.014152809761911913
mp-865426,YbNdAg2,0.0
mp-30591,Li2CuSn,0.0
mp-1095853,Y2CdAg,2.39504068
mp-28158,K4Be3O5,0.0
mvc-1233,MgMnP2O7,0.0
mvc-5811,TaZn2WO6,0.4489395548750013
mp-641924,Bi2PbS4,0.001707199642857482
mp-912180,GdCd,0.0
mp-541677,Cd2AsO4F,0.0
mp-608243,Co5Te4Cl4O11,0.0
mp-626727,SrH4O3,0.0058074949999893394
mvc-8329,ZnNi2P2O9,0.12658499044641847
mp-29067,S2N2Cl,0.1977721876610019
mp-9605,Hf3Si3Ni2,0.0
mp-569671,ZrSb,0.0
mp-770395,K2LiFeO3,0.04766872535713862
mp-607230,Ca3Ga3Rh2,0.0
mp-25714,K2NiH8(CO5)2,0.0
mp-28791,Se2NCl3,0.17831113562546766
mp-556785,RbTeF5,0.0
mp-1073934,Mg6Si5,0.2264647051515154
mp-534,B13N2,0.13774205644444404
mp-1063865,Sc2MnSi,0.2691420060119061
mp-674516,Ca3Zr17O37,0.1433475792543888
mp-863739,ErCdRh2,0.0
mp-662535,PbSe2O5,0.0
mp-579304,Rb3Mo12PO40,0.0
mp-4288,TbNiGe2,0.0
mp-1270,Dy2S3,0.0
mp-559757,Ba3Cu2(ClO2)2,0.02681947153409148
mp-684654,Bi2O3,0.10592538749999923
mp-752676,TiBi2O5,0.0
mp-570738,GaI2,0.0
mp-608149,KMnF3,0.0
mp-1070242,Mn3CuN,1.908499033500004
mp-22915,AgI,0.3879110350000001
mp-1027050,TeMoWSeS2,0.0922429591666667
mp-8611,Li8CeO6,0.0022509806666679566
mp-2121,ScAl3,0.0
mp-974063,HoScRu2,0.0
mp-554741,KErP2S7,0.0
mp-850083,Fe4S5,0.05950368611110956
mp-994911,S,0.010615960937499835
mp-555428,Sr5(ReO6)2,0.0
mp-764871,V2Fe3Te(PO4)6,0.07833489468749287
mp-862632,LiCa2Al,0.0
mvc-6490,V2ZnCuO7,0.019805041515151167
mp-766749,LiNi2OF3,0.053393898571431286
mp-979984,YbP3,0.3085038668749993
mp-780205,Fe6O11F,0.11156051746527053
mp-6299,K2Mg2(SO4)3,0.0
mp-763353,Fe4O5F3,0.08070931307291751
mp-1024975,CeB2Pt2C,0.03486682555555731
mp-589,TbFe2,0.0
mp-971702,YbNdCd2,0.0
mp-768368,K4I2O,0.0
mp-5807,Mn(SbS2)2,0.030930974999999524
mp-605809,Ba11In6O3,0.0
mp-7680,K2CaCu(NO2)6,0.08787499655854702
mp-36921,Mn2CuO4,0.05390405544642185
mp-505001,Rb3ZnBr5,0.0020696877777774962
mvc-15519,ZnCoO2,0.16238590187500002
mp-14235,SrGa2(SiO4)2,0.0
mp-765609,NaMn10O20,0.0671693038709682
mp-773763,Li4Cr3Fe2Sb3O16,0.142864758613106
mp-849073,Cr5S6,0.020504969772725985
mp-1026543,BaMg14Nb,0.20085816874999995
mp-773397,GeWO4,0.17529277708333524
mp-774123,Li2Mn3TeO8,0.011504553675605322
mp-756637,Ba3GeO5,0.033922486018520104
mvc-15885,AlWF5,0.3671289952380912
mp-17667,Sr3AlSb3,0.0
mp-770136,Li4MnV(PO4)3,0.02821283142857212
mp-1025587,Te4W3S2,0.09390825444444673
mp-1028333,CsMg14Sn,0.17279353001953135
mp-22184,Ba2SmNbO6,0.0
mp-720583,Na3B3H2O7,0.0
mp-778808,Li6La3Nb2O12,0.07619997108694676
mp-1019747,K2Ca3Si3O10,0.0
mp-1022032,Mg6CoBi,0.1752474754687503
mvc-8814,Ti2Zn(PO4)3,0.01916726629050558
mp-779241,LiCu5(PO4)2,0.12792980265624987
mp-30219,KGaCl4,0.0
mp-1098657,Mg30AlCrO32,0.04577479500000159
mp-693432,Ti2H2CSe4Cl16O5,0.4521617740409214
mp-760457,YBO3,0.0854183326666611
mp-757106,LiSnPO4,0.07462078845238196
mp-656060,Fe(SbO2)2,0.0
mp-1033660,HfMg14CO16,0.33698806078125104
mp-29016,SrThBr6,0.04998722468750039
mp-781628,Li7Mn8(BO3)8,0.02399231962764681
mp-762173,LiNiPO4,0.0970795507142892
mp-772882,Dy2Ge2O7,0.028828349545454657
mp-687212,Cr(PO3)4,0.07378450569852646
mp-23415,TlFeI3,0.03402053049999765
mp-779363,Cr4OF11,0.033484680494787256
mp-9209,In2(SO4)3,0.002203833676470701
mp-1095844,Nb2MoOs,4.522186182916666
mp-696085,Zn2P2H12O11,0.020778134691356698
mp-765299,Li2NbFe3O8,0.03355681178571235
mp-626464,PH3O4,0.023907487499999824
mp-763156,Li4V2Co3Cu3O16,0.08382554008927734
mp-16804,LiCaPO4,0.0009477469047505238
mp-1095906,SrLaZn2,1.850006015
mp-759384,LiSn2(PO4)3,0.00267296861111177
mvc-4256,Zn3Ge3(SbO6)2,0.2590499746874926
mp-752928,LiCoS2,0.08186493781249649
mvc-16820,MgV2O4,0.1268904285714303
mp-768483,Lu3Sb5O12,0.0
mp-11473,TlHg,0.0
mp-25017,NaNdMnWO6,0.0
mp-1033299,Mg6CrBO8,0.4523832179687517
mp-615973,K3(MoO3)10,0.026482684833888825
mp-1027339,Te2Mo2SeS,0.0570027841666656
mp-773259,Mn3Cr5O16,0.07709335031250042
mp-30247,Mg(HO)2,0.0
mp-600028,SiO2,0.013652374791663036
mp-615578,NdVO3,0.06292480900000008
mp-706277,Li10Si(PSe6)2,0.011087119999999562
mp-758693,Na4Al4H10O13,0.009958077822580513
mp-775430,LiBi3(IO2)2,0.0
mp-999141,TbAu,0.0
mp-1071567,GdSn2,0.0
mp-2004,Cu10Sb3,0.0677120496153849
mp-6796,Ca5Si2CO11,0.010352711447366936
mp-1075620,Mg5Si9,0.2486107252777763
mp-1063661,MgNi3,0.11357865000000088
mp-28423,Ga2TeSe2,0.0
mp-770865,Mn3SnO8,0.08873284791667048
mp-18596,Ca2ZnGe2O7,0.02652434138889159
mp-568607,Al5Mo,0.001530648333332607
mvc-274,Sr2Cu2TeO7,0.31001916041666444
mp-992,CaGa2,0.035550370000000164
mp-1017349,Mg6SiSb,0.15050229325000064
mp-1038778,Sn3Bi,0.07045976125000042
mp-1095524,Tm2In8Co,0.009944771818182652
mp-38177,Rb2ZnI3,0.2420985454166664
mp-762424,LiNi(CO3)2,0.12969683406250354
mp-777524,Li32Ti3Cr13O48,0.017677919583348082
mp-541361,K2RuNCl5O,0.0006278387499998317
mp-13993,Ti3NiS6,0.0
mp-557764,Sr2Ni(PO4)2,0.0
mp-752579,Tm2TiO5,0.0
mp-1080853,CeSe2,0.051054134166667715
mp-41191,Na3Ti2P2O10F,0.0052054717862670685
mp-6652,KZn4(BO3)3,0.007208131372553162
mp-549127,HoBi2ClO4,0.0
mp-1074405,Mg4Si3,0.1541265530158742
mvc-9865,CaSn2P2O9,0.0927966904642874
mp-15781,KLaS2,0.0
mp-763774,Li2Nb6NiO18,0.06728419958333376
mp-685370,Y2Ti2O7,0.04113921284090516
mp-765773,V3O5F3,0.062446161969654135
mp-29469,Pd(Se3Cl)2,0.0075653287654322545
mp-2550,NdTe2,0.0
mvc-3384,MgTiF5,0.08483936107142842
mvc-16423,ZnNi9O10,0.013369827750000065
mp-1070789,CrAu4,0.024451939999999617
mp-641743,Yb11(Sm2Se11)2,0.21649184088597995
mp-569136,K3Cu11Te16,0.0044236175833312075
mp-975468,RbAc3,0.3753144918750002
mp-752949,BiOF,0.04557404499999862
mp-559452,Na5Li(PO4)2,0.0
mvc-13223,VO2,0.13735998499999802
mp-1793,Zr3Te,0.0
mp-622624,Rb2Cr2As2O9,0.0
mp-1097497,CaSbRh2,2.47685843591346
mp-755185,LiSbPHO5,0.07596745046296505
mp-989190,ScBrO,0.07144439666666624
mp-5700,Sr2Cu3O5,0.05904988400000024
mp-761299,Li2CoBO4,0.053466073124999625
mp-3805,Al(FeB)2,0.0
mp-1038227,LiMg30AlO32,0.010874475273438657
mp-4487,Er(MnGe)2,0.0
mp-1071618,NdCuSn,0.015867941666667384
mp-23100,Sr2LuBiO6,0.0
mp-27180,NdSBr,0.0
mp-1016600,Mg6NbBi,0.19541099125000014
mvc-10601,CaP3W3O13,0.1131300980833334
mp-568670,Cs2NaTbCl6,0.0
mp-677,SrCd2,0.0
mp-680446,Cu3P4Se4Br3,0.0
mp-865281,Tm2AgPt,0.007913763749999525
mp-776448,BaNb3NO7,0.08143075291666868
mp-766267,Y7TmO12,0.0011322975312477725
mp-761599,Li4MnP2O9,0.019532558281250445
mp-11122,CsDyCdSe3,0.0
mp-743681,Sr5La2Mn8(O3F)6,0.1544214427563917
mp-1026708,RbMg14Si,0.19367815881249986
mp-703836,K4ZnH6(S2O9)2,0.2461882732196967
mp-1025268,Pu2W2C3,0.0
mp-765355,Li4V3P8O29,0.04691481814394472
mp-554598,B2H10C2NClO3,0.15653078225876982
mp-2350,LaS,0.0
mp-1019257,SmZnGa,0.0
mp-780108,Co2O3F,0.1049604264583328
mp-542688,LaH6Au3C6(N2O)3,0.20267041963459945
mp-775234,Li3V3(FeO6)2,0.009176430250001031
mp-981551,PrGe5,0.07685358375000018
mp-1005762,Sm3Au,0.1832181400000001
mp-769469,NaMnPCO7,0.01924668909091044
mp-763837,Na2SrLiVP2O9,0.07512444534721663
mp-25779,Ni3H2Se3O10,0.0
mvc-9651,PrMg(NiO3)2,0.10019449943750036
mp-1095774,Hf2NiIr,3.610339915
mp-651461,Co8C24(SO7)3,0.4599133745479911
mvc-6160,Ca(FeO2)2,0.10384069107142936
mp-423,GePd2,0.0
mp-8076,Na3SbO3,0.0
mp-583202,MnNiGe,0.3224669758333345
mp-560039,NaY(SiO3)2,0.0012293762499844265
mp-542294,Sr3NiRhO6,0.0
mp-865202,TmCdPt2,0.0038384331249998725
mp-20185,LuNiSb,0.0
mp-767624,Li9V5(SiO8)2,0.05568544312500378
mp-3871,Ti2SnC,0.0
mp-540146,MnPO4,0.0813857462500085
mvc-10629,BaCaWF7,0.07018461249999852
mp-655105,K2Pb(SO4)2,0.400925085384614
mp-1080455,TiCuSiAs,0.01354850925925888
mp-1099109,CaMg6Ni,0.1808337718749997
mp-600208,ZrH36C16(NO4)4,0.13553671554794544
mp-13369,Ba3CaIr2O9,0.02097954366666599
mp-35906,Y(AgCl2)3,0.007340477500000553
mp-1096540,LiAlIr2,3.17127885
mp-631570,BaTaB,2.055388438333332
mp-1078607,BiSe,0.17729397208333308
mp-1370,CsSi,0.0
mp-766728,LiV(SiO3)2,0.002916944875009264
mp-7831,MgIn2O4,0.027050396428572654
mp-15599,K2Ca2(SO4)3,0.002458425263154318
mp-1097599,Hf2CuTc,3.5685101321634614
mp-650695,Os2Pt(CO)9,0.21439961041666847
mp-21256,Mn7C3,0.010008088402175376
mp-505133,Ta4Co2PdSe12,0.0
mp-768326,Na4Sn2C4SO16,0.06492571194444262
mp-1025001,ErNi4Au,0.0
mp-559272,K3Sb7(SO3)3,0.00695836784091064
mp-556130,GeXeF10,0.004165747343748194
mp-33997,TaO2F,0.08556962874999563
mvc-14545,CaLa2SbO6,0.1400417430999994
mp-761456,Li2FeP2O7,0.03699387069444969
mp-569398,La4Al5Br2,0.0
mp-850089,Ti3Co2Ni(PO4)6,0.06251494655091605
mp-763620,LiCo2C2O7,0.052987020833344715
mp-8695,MnPSe3,0.0
mp-21567,SmAl3(PbO4)2,0.0
mp-695422,CdGePH3O7,0.3937308106730768
mp-1935,BaMg2,0.0
mp-971901,ZnPb3,0.13471356375000054
mp-2436,EuZn5,0.0
mp-1016243,Mg3Zn,0.05139205895000032
mp-10200,ZrBeSi,0.0
mp-756770,UNb6O16,0.05638029043478453
mp-978568,Si3MoPt2,0.0
mp-1025272,ZnPPt5,0.0
mp-18804,BaDyCo4O7,0.02300650423077144
mp-851281,Li3Mn2(PO4)3,0.05634488974999119
mp-1035790,Mg14FeNiO16,0.019891389453125186
mp-1016884,CaGeO3,0.1709084276666708
mp-9732,BaNaP,0.0
mp-510184,GdOs2,0.0
mp-23179,NiBi3,0.0
mp-763433,Li2MnF4,0.07418011500000077
mp-1078796,EuAs3,0.0
mp-1389,PuAl3,0.3045730524999985
mp-762476,LiMn3Al2(HO2)6,0.02166982791666694
mp-999558,Mn2SiNi,0.10385736503676404
mp-626297,Ba(H8O5)2,0.02987633814815105
mp-1071998,SmCo2,0.01120116833333551
mp-1027567,Te2Mo3WS6,0.05960547750000076
mp-541594,Sc8Te3,0.0
mp-18639,La2Si2O7,0.009766069090943573
mp-673134,LiSn2P3O10,0.0582933663020766
mp-797,DyPd3,0.0
mp-1094386,Mg2Ti,0.1144599186111166
mp-1075372,Mg5Si6,0.18000835262626547
mp-1079999,Zr2NiP2,0.0
mp-1093590,Ta2OsPd,4.1236816625
mp-765758,Li3MnFe3O8,0.04814558333333352
mp-763742,Li2FePO4F,0.029935962638893088
mp-20360,PuIn3,0.0
mp-770382,Li3V3(BO5)2,0.06409225388890416
mp-765322,Li5MnCr3O8,0.055511191960783364
mp-1027932,Mg14ZrTi,0.059319149583333175
mp-766799,Co9Cu3O16,0.0841219244642879
mp-537,ErCo2,0.0
mp-556417,Rb2NiF6,0.0
mvc-3005,SrZnCr(PO4)2,0.03369582932416115
mp-631320,TcIrOs,0.6795454552083342
mp-772245,CrPtO2,0.0045138934374993065
mp-568015,Na3ErV2O8,0.0
mvc-5556,VZnP2O7,0.052530892386365664
mp-673059,LiSbP2O7,0.035147578030302995
mp-765539,Li2Si4Ni5O14,0.07343961350000061
mp-744839,FeP2H24C8S4NClO4,0.12393116726111232
mp-6015,LiSiNO,0.0
mp-680680,Sr4Ru3O10,0.0024657004412027557
mp-554022,Sn2P2O7,0.0
mp-767240,CsPH4(NO)2,0.0
mp-5075,Sc3CoC4,0.0
mp-556886,Li4Al3Ge3ClO12,0.0
mp-28296,Ba3GaSb3,0.0
mp-505513,Nd(Re2Si)2,0.0
mp-640564,AgSbC6N4(OF3)2,0.27740388755525114
mp-1022468,Mg6ZrB,0.4819571893750001
mp-557856,BCl(OF2)2,0.0
mp-558478,La3NbSe2(O2F)2,0.0
mp-568925,Ni2Sn4Au,0.0
mp-1029446,CaGeN2,0.2102073437500005
mp-985285,CoHg3,0.4754284875000001
mp-720995,Sr2C2N3,0.4977660680357143
mp-31101,Gd3ReO7,0.03069014469699205
mp-1096493,GaNiPt2,2.4029094497222228
mp-975509,RbBa3,0.12821644499999985
mp-1028157,Mg14MnCu,0.09066645156250044
mp-28143,H8S5N2,0.0
mp-780234,Hf2N2O,0.00553485049999658
mp-851063,LiMnPO4,0.058188535654761786
mp-1918,FeRh,0.0
mp-1022730,YFe2Bi2(SeO2)2,0.1688569312121233
mp-17662,Lu2PdO4,0.048266301249999984
mp-3333,Eu(NiGe)2,0.0
mp-764784,LiFeSiO4,0.04465847857143146
mp-995191,BaTiO3,1.8158290239999904
mp-1026447,Mg14CdGa,0.013833691562499915
mp-1629,Th2Au,0.0
mp-652318,CrFe2C10(Se2O5)2,0.5306399417592598
mvc-8223,CaSb2O5,0.31822295453125005
mp-1079745,ErGa2Pd,0.0
mp-676310,Ni2SbTe,0.3009363633333315
mp-704918,Fe2(SO4)3,0.00013735794118208133
mp-30988,KBiO2,0.0
mp-4192,Ca3AsN,0.0
mp-9416,La(CuO2)2,0.0
mp-504653,Eu2SiO4,0.013059257142861824
mp-19046,KMnO4,0.0036691572395834977
mp-558062,K6Ti2S6O,0.0
mp-631481,NaSrNb2,1.5770982837500007
mp-997107,CuO2F,0.11898490398437556
mp-867174,SrLi2Pb,0.0
mp-1078567,Sr(BiPd)2,0.00028877400000038017
mp-16921,KNa4GeAs3,0.0
mp-553914,KCdCu7Se2Cl9O8,0.02254300687499456
mp-14500,Sr(As3Pt2)2,0.0
mp-1345,CaP,0.0
mp-11851,ErCoSn,0.0
mp-1097204,AlGaIr2,3.03153904
mp-21037,U2FeS5,0.07275743078124998
mp-28490,Tl3BSe3,0.0
mp-31593,Na4CoO4,0.0
mp-763509,LiTiVO4,0.09638907857142164
mp-673667,TiO,0.19751667928571406
mp-863716,Pm2IrPd,0.0
mp-850489,CrPO4,0.06719266979166605
mp-1022078,Mg6NbCu,0.214405061875
mp-29190,Te4MoBr,0.0
mp-775392,Li2Ti3MnO8,0.023788218571434427
mp-1098933,Mg30CdNiO32,0.012293349375000595
mp-555790,Tl2C3O4,0.1639787255555527
mp-1018117,CeRh,0.0
mp-764769,Li4VF7,0.07475577444443804
mp-1026386,Mg14TiB,0.32095436421875023
mp-672262,La3Zn3Ge2SbO14,0.0
mp-17516,Ca10P6SeO24,0.0
mp-715474,MoO3,0.059906636562500275
mp-706447,La2Mg3H48(NO5)12,0.0
mp-361,Cu2O,0.0
mp-1025934,Mo2W(SeS2)2,0.03494976388888649
mp-775551,Li4Ti3Mn4(FeO9)2,0.07298373911158151
mp-11334,W,0.09015606499999862
mp-699602,Li3Mo2P3O14,0.07516251445454092
mp-1096430,CeSe2,0.0
mp-775694,Li4Cr3Ni2Sn3O16,0.09823046386907296
mp-28742,Ca4Ni3C5,0.0
mp-631309,LiHg2Os,0.8751153687500004
mp-770145,Li4CrFe3O8,0.0008407109375019317
mp-1091404,UInRh,0.042195135777777885
mp-1032871,HfMg6AlO8,0.4061364107343772
mp-622135,V2Ni2O7,0.0
mp-1096819,Sr2Mn2O5,0.07337940166669021
mp-761963,Li4NbCo5O12,0.14697821994317994
mp-1096144,ZrTaMn2,3.865572151875001
mp-767483,VPO5,0.0036328328571801904
mp-763304,Li2CoSiO4,0.004897390624993392
mp-20316,PPbSe3,0.0
mp-1035645,KMg14BO15,0.3396517935483887
mp-764806,Li3CrCo3O8,0.030275581611107324
mp-540378,VP2O7,0.0
mp-1094969,MgGa3,0.016577950624998998
mp-24672,Zr6Ni(SnH5)2,0.08700384289473463
mp-574159,CeAs2Pd3,0.0
mp-753511,LiTiSiO4,0.06634901095237744
mp-637918,Cr3GeN,0.007546751999999656
mp-1061166,ScC,0.8325385229838664
mp-1073083,Mg2Si3,0.22383690511111048
mvc-3648,Ca3Cu2(SiO4)3,0.09318173650000006
mp-6066,NaTaGeO5,0.0
mp-11869,HfSnPd,0.0
mp-1029770,BaCrN2,0.0
mp-768146,Na2AlPCO7,0.0
mp-565204,K2Ni2(MoO4)3,0.0
mp-1029656,Na6WN4,0.017537766590908003
mp-704182,Li2Co(PO3)4,0.04906142675438385
mp-974925,NdY3,0.01936039124999933
mp-30236,TlAsSe2,0.0
mp-865262,TmTaRu2,0.0
mp-754075,LiHfPCO7,0.053063609886359935
mp-781596,LiFeOF2,0.0703361832222269
mp-30260,Zr8Ni21,0.02223339586206929
mp-1096296,LiVRu2,2.8905104837500017
mp-775168,MnCu3(PO4)4,0.03333965166666618
mp-771573,Li2V2Sn(PO4)3,0.057857378062494476
mp-32750,CuI,0.007419952499999827
mp-1017182,RbMg6W,0.4996270750000002
mvc-11834,BaTlCuO4,0.16146856232143136
mp-770603,Li5CrO5,0.06967068545454325
mp-1074285,Mg4Si3,0.1806236215873032
mp-570186,Ga2Te2Br7,0.0
mp-971718,ZnBi3,0.1893904999999996
mp-861500,PrB2HF10,0.0
mp-30972,Na2Sb4O7,0.0
mp-706627,ZnH6C2(NO)4,0.10294684581006397
mp-776746,Li8Fe7Sb(PO4)12,0.010785059835529687
mp-1098079,CsMg6V,0.4746437399999999
mvc-6615,BiO2,0.02195114333333148
mp-764958,Li2CoSiO4,0.014049498749994171
mvc-11009,Y2Mn3O9,0.2796363573214897
mp-541995,LaSiO3F,0.007127390231485009
mp-1013565,Na2CoP2O7,0.020456434444455773
mp-553907,Rb3AgO2,0.0
mp-554755,SiO2,0.017734292500000137
mp-774138,V2O3F,0.0
mp-755853,Hg(BiO3)2,0.00927058736111075
mp-17088,KBaPS4,0.0
mp-605166,KDyH2C2SO9,0.019141597766926918
mp-600002,SiO2,0.017821102083333432
mp-568654,PrAg2,0.010115579999999458
mp-11630,Dy2Al6Si4Pt,0.0
mp-781774,Na3NiO3,0.0015378279464215439
mp-22667,UFeS3,0.11959179812500055
mp-19479,Na5La(MoO4)4,0.0
mp-554923,Sr(GaO2)2,0.0008358710714304607
mp-16237,La(SiAg)2,0.0
mp-18513,Ba2MnSe3,0.0
mp-1673,Tb5Ge4,0.0
mp-866288,BeVCo2,0.0
mp-972373,Tl,0.0207609849999999
mp-1021492,Cd4SF6,0.026669629090907417
mp-770417,Li4Mn2VNi3(PO4)6,0.0729724924374251
mp-11742,CsNdTe2,0.0
mp-1029537,Ba3RuN3,0.0
mp-684539,Li3Sb2(PO4)3,0.050011316750000034
mp-977580,MgSc2Al,0.0
mp-1826,Ta3S2,0.0
mvc-9043,MgMo2(PO5)2,0.11482589488887562
mvc-5911,CaCr2O4,0.23297937869048546
mp-560237,Cr3AgO8,0.0
mp-1018852,OsN2,0.9073658250800012
mvc-5780,Mg2FeIrO6,0.033813600937500084
mp-6449,CdCu2SiS4,0.0
mp-5679,CdSO4,0.01063302833333779
mp-754354,Ba4OF6,0.013370899999999963
mvc-7877,CaFeBiO5,0.1421936600390632
mp-1009128,MnN,0.7261204500000016