mpid,formula,e_hull
mp-32511,Li3V3(PO4)4,0.009446156025656904
mp-29742,NdSi2Rh3,0.0
mp-2116,ZrMn2,0.0
mp-1075982,BaSr7Co5(CuO8)3,0.03111405199062567
mp-1036059,YMg14CoO16,0.10437312929687527
mp-1098599,Mg30BiCO32,0.18282598640625114
mp-763875,LiMn3OF8,0.08100326464744168
mp-7832,BW,0.0
mp-14325,La(Ni2B)6,0.0
mp-287,UF4,0.0
mp-653579,Re3S4Cl,0.0
mp-752467,NbO2F,0.0
mp-1004373,LiMnO2,0.00551305812500047
mp-566101,FeBiO3,0.2387346187499997
mp-766850,Li4Mn3V2Co3O16,0.08765457370537444
mp-763906,Li2VCrO4,0.011089791875000364
mp-1095455,CoCS(N3Cl)2,1.5736548512018151
mp-849697,LiCo3(OF3)2,0.07320860895833636
mvc-11260,Ca(VS2)2,0.2395572871428584
mp-753719,SrLiNb2O6F,0.03236108522726866
mp-625359,NdHO2,0.0
mp-1080132,EuHg3,0.0
mp-569390,FeTe2ClO5,0.0
mp-667360,CsSbOF4,0.0
mp-636565,YbIn5Ir,0.0
mp-540436,LiMo(PO4)2,0.062394056041643615
mp-1017477,LaMg6W,0.3985343995454631
mp-1018796,Mg2Si,0.11715273533333505
mp-12982,ScAs,0.4826706199999995
mp-1026877,Mg14CdCu,0.043725174687500035
mp-3952,BaY2O4,0.0
mp-975341,La3Mg,0.060864478750000124
mp-1039820,Mg30SiBO32,0.16750552273762942
mp-780333,Li3Bi2(PO4)3,0.0437843607500028
mp-570165,CdI2,0.0006300768888889419
mp-10247,U2CrN3,0.00837030277777906
mp-607525,Ba11(Cd4Bi7)2,0.00022191757576006665
mp-1040471,NaMoO3,0.09387599099998843
mp-735491,CaMg2H24(ClO2)6,1.1578980286666658
mp-1018671,CeZnGa,0.0
mp-773047,KNb2PO8,0.009715917555551457
mp-772972,Li2Ti2O5,0.055947531759233726
mp-765069,TiV15O24,0.013383057718765912
mp-1058696,TiFe,0.0
mp-699558,K10Zr3Cd(MoO4)12,0.002309887635134622
mp-764373,LiFeF3,0.08850689066666284
mp-976828,MgPb3,0.019106241249999826
mp-933,YAs,0.0
mp-19022,Na4FeO4,0.0
mp-17832,RbBaPO4,0.0
mp-20044,La(NiAs)2,0.0
mp-771839,Na4Co2C4SO16,0.03734107305554524
mp-705676,K4MoO8,0.4826955592307689
mp-698470,LiAlH16(CN)4,0.11705119923076968
mp-554164,KLiZnP2O7,0.0
mp-765532,LiV3O5F,0.07134691374998248
mp-626568,Al(HO)3,0.061111623214286766
mp-781676,Li4Mn3Cr2O10,0.07247983842109651
mp-557823,SbXeO2F7,0.2102588412500017
mp-755991,AgBrO4,0.07067211163194465
mp-19092,CoWO4,0.0
mp-755954,BaSr2I6,0.05041338625000025
mvc-7964,CrAs2O7,0.12273182558333405
mp-643793,Cu3H2(OF2)2,0.0
mp-680221,Ce3Ge5Pd14,0.011727778437501613
mp-504554,Ba5Ta4O15,5.892208327118453e-05
mp-1037189,Mg30CoNiO32,0.00013020335937419247
mvc-13666,MgSnO2,0.17692094062500008
mp-767751,Li7Mn(O2F)2,0.07375484964286727
mp-5181,LuSnPd2,0.0
mvc-12895,Mg(NiO2)2,0.07023870785714426
mp-771219,Li(CoO2)2,0.04518984964285533
mp-22012,Tb(MnGe)6,0.08770501384615502
mp-22191,HfFeGe,0.0
mp-1079454,InSe,0.004876723749998924
mp-1017287,NaMg6Cd,0.0581992818749999
mp-767049,LiVSiO4,0.018726365446426918
mp-781072,Fe5O7F3,0.0920070472499992
mp-999142,SnO,0.44399118750000177
mp-949028,Sn,0.027153814782609142
mvc-15702,Zn(SnN)2,0.2260644725000001
mp-12388,Er3Al3NiGe2,0.0
mp-865511,VCl4,0.04933744049999689
mp-1021416,CeMg6Ti,0.16253247166666673
mp-542909,Mn,0.052199712000000176
mp-21153,ErGeIr,0.0
mp-864782,Ta2MoRu,0.0
mp-571469,Sm3Mg13Zn30,0.0
mp-12581,CdTe,0.4823168500000001
mp-25042,Ba5Ho8Mn4O21,0.0012901728618448516
mp-849964,Li2V3CrO8,0.0690586143005607
mp-853231,LiFeOF2,0.0869184522222275
mp-743640,Li3La8Ti9Cr3O36,0.06583992711865427
mp-566626,RbVH6SO9,0.023167273750000383
mp-235,SN,0.12214766721749992
mp-754885,SrCaI4,0.04376010333333325
mp-504674,Ba2EuReO6,0.0
mp-752404,Ba2Sb2O7,0.037780667272727435
mp-862888,CaPmZn2,0.0
mp-1096847,BaCu2(AgO2)2,0.1317045588888872
mp-1078257,Sr(SnHg)2,0.0
mp-505063,Nd(Mo4O7)2,0.2036394355978288
mp-23156,He,0.002468739999999997
mp-38292,Sm(BiTe2)2,0.14909453294642994
mp-1095527,GdGeRh,0.0
mvc-5788,Ca2AlBiO5,0.1403105109325331
mp-560132,Nd2SiO5,0.0
mp-1080738,Sn2MoOsO6,0.4434849260000009
mp-767685,LiMn2P2HO8,0.0395925013095173
mp-759303,CsB10H13C,0.05317014949242349
mp-776850,Li2Mg2(WO4)3,0.05033307789473795
mp-16108,Cs3P6N11,0.0
mp-1096738,ZrTaRu2,3.9494806574999988
mp-757636,NbTlO3,0.0
mvc-3619,Zn3Co2O7,0.1157487683881584
mp-721158,Mg2P2H12O13,0.006453763362072706
mp-20484,Li2FeCu(CN)6,0.4286386934599973
mp-1586,NdSb,0.0
mp-763712,LiTi2VO6,0.060774379249995285
mp-639135,Pr3RuCl3,0.0
mp-769915,La4Ga2O9,0.0
mp-1095252,SrFe2Se2O,0.0
mp-981210,Tl3V,0.5127897512499997
mp-625888,Ba(H2O3)2,0.0
mp-862256,Cu2PdAu,0.0
mp-30324,Mg5(Si8Pt5)2,0.0
mp-767750,Li12Co3NiP4(CO7)4,0.04101254461536197
mp-1095429,KUClO3,0.017253924166666934
mp-541156,Ge4PbO9,0.0064953032440762115
mp-989179,Mo4HS8,0.3088514385676921
mp-21895,Na15Pb4,0.0
mp-775626,NaV5O8,0.06441978875001197
mp-569628,CaCdAu,0.0
mp-698695,CaFe2Sb2(PO4)6,0.0
mp-764620,LiFe4(BO3)4,0.07502594392857276
mp-556414,CsTmSeCl2O3,0.0
mp-28299,USe2O7,0.0
mp-765712,Li4FeNi3O8,0.004458506406249896
mp-771967,BaLaCl5,0.08797206535714519
mp-31824,LiFe(PO3)4,0.04438709513888295
mp-962065,SrCaSn,0.6216509349999999
mp-782698,Li2TiMnO4,0.06363314562499768
mvc-5152,Mg(CuO2)2,0.07600771321428468
mp-766902,LiMn2F7,0.09119258916665628
mp-763162,FeOF,0.08659857944444571
mp-1009085,BeSiP2,0.0
mp-30853,Tl2Pt3,0.0
mp-1038281,Mg30MnCoO32,0.005642426484374854
mp-765163,LiVCr(P2O7)2,0.009083716349181259
mp-1075616,Mg5Si9,0.2870156006349194
mp-707395,NaH2SeO4,0.009921289453121318
mp-557577,K3ScSi2O7,0.0
mp-2629,Ce7O12,0.0
mp-1017487,BaLaMg6,0.19901369678977288
mp-863881,Li2MnP3O10,0.08685936380208313
mp-706714,Li9Mn15O32,0.00661042783801058
mp-31809,Li2FeP2O7,0.037419619444448486
mp-22310,UCrC2,0.2260881812499971
mp-3051,Mg2GeO4,0.0
mp-542850,Na2RuO4,0.0
mp-771383,Li5Mn2P2(CO7)2,0.04275909733333716
mp-551675,Li3UO4,0.0
mp-13740,AgAsS2,0.0009005885416657476
mp-567789,InI3,0.0
mp-776261,Na5Sn2P(CO4)4,0.09259503723214292
mp-1019784,K2SN2O5,0.22722817851919874
mp-867169,Sr2SnHg,0.0
mvc-272,Sr2YCu2SnO7,0.11114535057692
mvc-12607,ZnCr2O4,0.18626519535713992
mp-1036050,Mg14MnNbO16,0.1209036150816072
mp-22793,AlFe3C,0.0
mp-780532,Li2FeO2F,0.08886341041666856
mp-973926,KCoH3(CO2)3,0.11711061422618928
mvc-1868,Sb(PO3)4,0.031550546397044237
mvc-3077,Mg4V5(TeO6)3,0.13010343594791962
mp-779142,Na4Cu2C4SO16,0.04804189553240601
mp-560266,Na3B5SO8,0.005475456813726964
mp-765776,V3CrSb2(PO4)6,0.06210058749999981
mp-19616,Na2LiFe(Si2O5)3,0.0
mp-30611,ErSnPt2,0.0
mp-771107,Li3Ni4SnO8,0.005827996785717993
mp-24897,Cr3O,1.7717052212499995
mp-850452,Mn6O5F7,0.07972757756945725
mp-764351,LiMn2OF3,0.090620172142855
mp-22236,In3Co,0.0
mp-684962,VSe2,0.003148656666666305
mp-559689,LiAlSiO4,0.027281477619048644
mp-865323,Tm2Mg,0.0
mp-601902,Tl2HPtC5N5O,0.22318775359540946
mp-973676,HgS,0.002967217500000175
mp-1003403,Mn8HO16,0.011891337412494709
mp-650984,Ru6C17S2O17,0.6406808544642884
mp-558096,Zn2SiO4,0.1440315661904732
mp-762247,LiCoSiO4,0.1088837799285578
mp-775103,V4(OF3)3,0.0
mp-1098399,KHfMg30O31,0.09870051688492244
mp-1028029,YMg14Nb,0.09762524312499864
mp-21383,Eu(SiRh)2,0.0
mvc-4242,Zn3Cu2(GeO4)3,0.14511658849999787
mp-542846,AsS,0.00362359624999975
mp-1075486,Mg5Si6,0.1766911694444473
mp-32028,Mn(PO3)4,0.037092681727949994
mp-763113,FeOF,0.2359738430555529
mp-3889,NaBO2,0.0
mp-26851,Li2CuPO4,0.04814798843750179
mp-1609,Cr3Ir,0.010333635000002063
mp-1094391,YMg,1.3482239700000005
mp-555531,K5Tl3O,0.0
mp-686947,EuMoO4F,0.0
mp-579738,Li9Fe3P8O29,0.0025580717347013504
mp-762635,Li3Mn3NiO8,0.03069707648808695
mp-569952,K2CuCl3,0.0
mp-5977,Nd2Zr2O7,0.0
mp-505696,Sr2MnCuSO3,0.0203275968066432
mp-1038115,KMg30MnO32,0.04433385144531243
mp-4280,GaCuO2,0.0
mvc-4466,V2Zn3(GeO4)3,0.14619047933333906
mp-862671,ThF4,0.0967178490000018
mp-23046,SrIF,0.0
mp-19137,K2Mn(SeO3)2,0.0
mp-1096960,CsY(MoO4)2,0.0
mp-973450,Hg3C,1.521809613125
mp-4520,Y(CuGe)2,0.0
mp-631390,SrZrZn,1.0722088566666659
mp-1028985,Te3MoWS,0.0711433356249982
mp-1097580,Li2TlSb,1.2888021933928575
mp-28541,Bi2P4O13,0.0
mp-957,HgSe,0.16036402500000024
mp-30787,MoRh3,0.0
mp-31532,CoPO4,0.12720458916666644
mvc-10242,Ca(FeO2)2,0.03771842273809512
mp-21207,LaInNi2,0.0
mp-5830,Na3AsS3,0.0
mp-769817,LiVBO3,0.06832016013889143
mp-600037,SiO2,0.01678858583333209
mp-616210,Pr5In11Ni6,0.017644855871212783
mp-32318,Na5NiO4,0.0
mp-760837,Rb3Nb20O34,0.0159305252192965
mp-554762,KXeO3F,0.545705200625
mp-1016903,CdGeO3,0.3022126813333381
mp-686028,Sr6Nb2O11,0.034600282631582324
mp-762789,LiMnP2O7,0.06743877727272718
mp-1076631,Sr7CaFe6(CoO10)2,0.012753064878473276
mp-7571,KNbF6,0.0
mp-1025549,Tl3VSe4,0.0
mp-763073,Fe4O7F,0.11905355421874207
mp-981546,PrHo3,0.025024438750000044
mp-30108,P2PbAu2,0.0
mp-556958,La4S3N2,0.0
mp-723020,Al2Si2H5C2NO10,0.3653104476041662
mp-1025411,CeSi2Rh,0.0
mp-770641,LiMn7O12,0.04991293825000831
mp-763128,FeOF,0.1272915727777768
mp-1097256,Li2GaHg,1.1920038912499975
mp-1038016,CaMg30SiO32,0.08857107140625065
mp-669351,Rb3Ce(PSe4)2,0.0
mp-767660,LiMnCO3F2,0.04196051833332781
mp-28920,Tl5Se2Cl,0.0
mp-763556,LiV(PO3)4,0.0759660791666752
mvc-3728,MgMnO2,0.19750644249999905
mp-866109,HoNbOs2,0.0
mp-643741,Sr2YAlCu2O7,0.028232284326924706
mp-625257,FeHO2,0.03443798156250022
mp-961688,VGaPt,0.40134156333333415
mp-867193,Sr2BiAu,0.0
mp-1097238,LiYPb2,1.830939808125
mp-647343,PBr7,0.0
mp-585234,LiCo2(PO4)3,0.0795219860416605
mp-570631,U(FeP)2,0.0
mp-769957,CrFe2O5,0.0652477625000003
mp-1028855,MoW3(SeS)4,0.0307045858333348
mp-753795,Li3BiO3,0.09318566142857154
mp-15939,SrAl2B2O7,0.0009644633333323328
mp-1034045,RbHfMg14O15,0.28807583818548554
mp-1075649,Mg5Si9,0.2010927981349191
mp-640067,Ni4B3,0.0
mp-43188,Na8BeAl4Si7(BrO12)2,0.04115570365941856
mp-554674,ZnGa3N3O,0.04834692875000002
mp-770582,Li8CrO6,0.03562104099999973
mp-866200,Li2SmTl,0.0
mp-775678,Li4Ti4Mn4CoO18,0.07495247480847311
mp-771413,Li3CrO4,0.07426888874999983
mp-771721,V4FeNiO12,0.02506621819443211
mp-1035569,LiCeMg14O16,0.0908249036328126
mp-763043,Fe2OF3,0.09656526375000674
mp-1018762,Li3CeBi2,0.0
mp-774552,Li11Y14Ti14(S2O5)7,0.09159409897727856
mp-532604,Na2Zr12B2I5Cl23,0.0
mp-553925,Rb5B19O31,0.0
mp-10516,Dy6FeTe2,0.0
mvc-14989,Al2(WO4)3,0.14889727705882372
mp-976903,NaNd3,0.2449721031250003
mp-704534,K4Zr3Mn(PO4)6,0.0
mp-3334,Tm2Sn2O7,0.0
mp-1096479,MgAgAu2,1.23298652171875
mp-13863,BaGeO3,0.0
mp-3813,Ba2ZrS4,0.0009864969642876527
mp-767180,Li2MnOF3,0.08647081517856581
mp-755591,Dy2TeO6,0.06843396222222342
mp-31994,LiMnPO4,0.03552448607142278
mp-626143,Mg(HO)2,0.00894254999999955
mp-8073,AsPd2,0.0
mp-779227,Li24Ti11CrO36,0.0032510890277919198
mp-559361,Cs3MnF7,0.003658695909091847
mp-12056,Ba(POs)2,0.0
mp-559203,CdSeO3,0.0
mp-571059,YCd3,0.022115170000000184
mp-542171,HoNiGe,0.0
mp-753653,LiTi2P4H3O16,0.056722621634617276
mp-767119,Li3Mn3O5F3,0.07121781683035433
mp-1034560,SrMg14CrO16,0.10662057221354272
mp-667309,Li2SeO4,0.5358819490476163
mp-19581,Mg3Cr2(SiO4)3,0.059591754125005274
mp-961647,CaAgP,0.6838517022222219
mp-767787,LiVSiO4,0.09418761687499888
mp-1009471,NbN,0.6375658800000004
mp-765416,Li2Fe2Si8O19,0.06316846516128294
mp-19918,GdGe,0.0
mp-11917,Mg(BeN)2,0.0
mp-17394,NaYGeO4,0.0
mp-762625,Li4Mn3(NiO4)3,0.03542572953282885
mp-1029380,TeMoWSe2S,0.05819187166666673
mp-566000,SrCr2O7,0.0
mp-777595,LiFeF4,0.0595707843518607
mp-29815,LaAs2,0.0
mp-569889,CsC3(SeN)3,0.2576296621063117
mp-977218,Li2Mg,0.0245733616666668
mp-557026,ZnS,0.0006100747222217429
mp-777715,Li32Ti3Cr13O48,0.017461073437514685
mp-975304,RbMoO3,0.19236179949999954
mp-569727,BiPd,0.02011226937499977
mp-1074356,Mg4Si3,0.12889344658730284
mp-10126,V5SiB2,0.0
mp-20596,U(SiNi)2,0.0
mp-1035374,Mg14CuSnO16,0.1261475770312508
mp-697761,MnPO4,0.12947218166667618
mvc-519,Ti3(P2O7)2,0.14855992869160062
mp-753783,Li5InO4,0.04934128250000036
mp-504304,LiCuPO4,0.055829501785727764
mvc-2858,Mg(SbO2)4,0.18441223346153546
mp-770297,Li4Cr3NiO8,0.014431752500000172
mp-558571,Sc2Te5O13,0.0
mp-541449,CrGeTe3,0.0
mp-707206,TeP6H30(NO4)6,0.03761222432955247
mp-29076,FeWN2,0.0
mp-20802,Eu(POs)2,0.0
mp-8255,CaPtF6,0.0
mp-27608,Be4TeO7,0.0
mp-362,Ni3S2,0.0
mvc-13419,CaLa2CrO6,0.09408640483333207
mp-850245,Li5Mn6(BO3)6,0.035288723976171
mp-1096689,Y2PtPb,2.3724998182589303
mp-1097570,BeMoRu2,3.665636896363635
mp-1078630,Ba2ThCu2S5,0.0
mp-771537,Li7Cr3(WO8)2,0.05746754646825725
mp-28736,Pr4RuI5,0.0
mp-758283,LiCuF4,0.07339267312499231
mp-850445,Na3Zn4As3H12O19,0.01760104243901317
mp-1026879,RbMg14Cu,0.18459301593750024
mp-15307,ErSi3Rh5,0.0
mvc-3481,CaSbF5,0.011090613214288505
mp-10139,Sc3SnB,0.010966514000001482
mp-779763,Tb2Ti2O7,0.0
mp-697701,LaP3H8O7,0.03836307297734543
mp-557126,NaPr(Si3O7)2,0.0
mp-1031920,KMg6MnO8,0.2762616332812504
mp-694056,BaMg2Al6(Si3O10)3,0.028650080989581994
mp-768971,Li(BiO2)3,0.07690112941667683
mp-560502,Ba2CuTeO6,0.0
mp-8268,Yb2CdSe4,0.3471825894866072
mp-998561,CsSrCl3,0.0
mp-1009539,OsC,1.3878214487499996
mp-646337,Tb2EuSe4,0.0
mp-551092,KLiZnO2,0.0
mp-570326,CsCrCl3,0.016958621444443267
mp-30217,Ca21(Mn2Sb9)2,0.014637879389526988
mp-567022,K3Bi5(AsO4)6,0.005210565986845772
mp-2658,AlFe,0.0
mp-849680,Li2CuNiO4,0.01836766156250214
mp-8866,La10Se19,0.0
mp-972960,La2IrAu,0.0
mp-764792,Li4Ni8O9F7,0.0665051778422594
mp-504667,RbIn(WO4)2,0.04200498999996416
mp-556916,GaAgS2,0.002592603750000144
mp-647579,ZnBr2,0.0
mp-1063988,S,1.1226065534374996
mp-10390,Ta2O5,0.007567818571429186
mp-764337,LiMnF3,0.03737462299999893
mp-553432,TiO2,0.051005997500013216
mp-790062,V5Sn(PO4)6,0.05877291565972165
mp-721624,Ca5P3HO13,0.001281314318180904
mp-706239,NaCa2Mg2V3O12,0.0
mp-769010,Li6Bi5O14,0.08463838909998334
mp-20584,RbEuS2,0.02343480916666696
mp-1036361,CaMg14VO16,0.0430325789843744
mp-1032741,YMg6TiO8,0.2309713981250008
mp-562181,Cr2P4O13,0.011172701842106392
mp-565700,Ti8O15,0.014636463152156054
mp-559557,Cs2Na2B10O17,0.0
mvc-16047,Sr3CaMn2S2O5,0.106044832650241
mp-767130,Cr4OF6,0.06121684909090864
mp-683863,V3P4Pb2O17,0.0
mp-989520,Rb2NaBiCl6,0.0
mp-1076186,Ba3Sr5Ti7MnO20,0.11989887120019027
mp-1016669,Mg6BMo,0.6319403371875003
mp-556528,In4GeS4,0.0
mp-675506,Nb6(Pb2O5)5,0.04800834926829278
mp-767975,Li2NiP2O7,0.0681245016666594
mp-29997,La3AsI3,0.0
mp-646356,CoBC8(OF2)5,0.3810091797250008
mp-626827,Fe4H14O13,0.11009049443548412
mp-759230,NaAl11O17,0.003313814827586193
mp-865713,Li2TlBi,0.0
mp-1028296,Mg14VGa,0.09047028541666656
mp-569022,UAu2,0.0006520433333330189
mp-13212,GdCuGe,0.0
mp-5707,CsAsF4,0.0
mp-642651,Yb2Ge4Ru3,0.0
mp-849282,Li9V12Te7O48,0.05998971523025265
mp-11430,Ca3Al7Ag2,0.0
mp-1079776,Hf2Co7,0.0
mp-10600,La3AlC,0.03425554833333422
mp-35893,KAlO,0.266761462812501
mp-761656,Li4Co(PO4)2,0.07991950874999976
mp-1093758,MgZn2Ir,2.040151497638892
mp-556623,K2TiOF4,0.0
mp-566072,SmCu(MoO4)2,0.0
mp-761752,LiVCoO4,0.012485989761908732
mp-757399,La12Cu6O25,0.07042774279071208
mp-14266,Cu15Si4,0.0
mp-20293,SmGePt,0.01422223875000039
mp-31608,CoP2O7,0.05754346368751673
mp-775042,V4CoNiO12,0.0
mp-571559,CdI2,0.0010017445555554618
mvc-9230,TiZnP3WO12,0.06192437900000058
mvc-5956,Mg2FeWO6,0.0018714664999990305
mp-677468,Ba16Tb8Nb5(SnO16)3,0.012662760273411957
mp-780906,Co3(O2F)2,0.08822443111111067
mp-1093575,MnCuAu2,1.5489885250000004
mp-690866,LiMnPO4,0.04792287071428536
mp-531302,La10(Si2O9)3,0.024216098197697992
mp-505678,Sr2CoClO3,0.034681505833332515
mp-19968,CaIn2Cu,0.012043557499999745
mp-559037,Rb3Nb6SBr17,0.0
mp-1036521,Mg14NbAlO16,0.19240345712890766
mp-132,Ca,0.02441684999999993
mp-556127,MgH6(CO3)2,0.0833963243333331
mp-669378,Ce3Si2S8Br,0.0
mp-999288,PrTlTe2,0.0
mp-1025879,Mo2W(Se2S)2,0.012776569444443277
mp-22461,Fe3Sn,0.0922933758333322
mp-865858,PaAu3,0.0
mp-9498,Nd2C(NO)2,0.0
mp-2154,CeP,0.0
mp-1076836,K2Na2Mo3WO12,0.054854561499996464
mp-978990,Tl2(IO3)3,0.0
mp-974370,PtRh3,0.0017338249999996336
mp-684109,LiBiP2O7,0.0450731643939406
mp-756565,Li2Ti7O15,0.07429018380211437
mp-613235,CoSO4,0.2340077400000009
mp-705562,Mo4P5O24,0.005647154318197067
mp-1076450,Sr3Ca5Mn4(FeO5)4,0.06869936628476303
mp-862665,AcGe3,0.0
mp-1028128,CaMg14Sb,0.1202471908258922
mp-11107,Ac2O3,0.0
mp-567351,Tb4MgIr,0.0
mp-14466,KLi6IrO6,0.0
mp-557320,K4Re2Cl10O,0.015485205343136244
mp-974631,K3Tm,0.5842894675000001
mp-19115,CaFeO3,8.105250001211317e-05
mp-510464,Ce(IO3)3,0.04542949765384563
mp-769781,Li4Cr5BiO12,0.0938351877020267
mp-998745,TlZnF3,0.0
mp-861553,Li6Mn3Cr2Fe3O16,0.07587588583331684
mp-567143,Lu14(InCo)3,0.0
mp-862933,PmMgAu2,0.0
mp-1095643,NbCr2,0.0197132050000004
mp-1029225,Te2MoW3(SeS2)2,0.07650852250000195
mp-752729,CaTb2O4,0.07799049696428817
mp-865911,YbPmHg2,0.0
mp-1073306,MgSi2,0.20116302509259487
mp-1022720,Ni6Cl7,0.35800979769230823
mp-556321,Li2Co(WO4)2,0.0006134469230847373
mp-1079655,Mn(NCl3)2,0.8963164256261735
mp-560322,K2RuN3Cl3O5,0.0
mp-645303,Cs4CO4,0.2286369333333349
mp-1077915,HgAsPd5,0.0
mp-1094812,MgCd2,0.0242527558333332
mp-555760,S,0.041229528159721696
mp-973564,La2TlZn,0.021994352499999703
mp-18755,NdMnSbO,0.05405989455166616
mp-1099674,Sr2Ca2Mn3FeO12,0.07422010572023298
mp-570869,LiNb3InCl9,0.0
mvc-7987,Mg3Fe4(WO4)6,0.11437332711711612
mp-23948,Rb3MgH5,0.007775734907407461
mp-553978,KSeNO2,0.3823984787740038
mp-10966,Tb2Cu(GeO3)4,0.007675696973692858
mp-762767,Li3Fe(Ni2O5)2,0.0486073451273148
mp-998553,KAgBr3,0.0
mp-30028,YSi2Rh3,0.0
mp-22821,SnP2PbO8,0.0
mp-1065115,MoPb,0.9785010300000004
mp-777233,BaYF5,0.05966775214286104
mp-570363,LiSi,0.2064421300000001
mp-850280,Na8SnO6,0.05516918000000004
mp-1098445,LaHfMg30O32,0.13759133527343792
mp-22238,TbSnPt,0.02468584722222289
mp-675021,Nd16Zr16O49,0.07097238289197527
mp-32436,LiV2(PO4)3,0.008761329305556842
mp-715517,VO2,0.05205197833332953
mp-698572,Ga2CoO4,0.015411354285714829
mp-555288,SbS(BrF2)3,0.0
mp-570629,Ce4Ru3,0.0
mp-677308,NaPr2Cl6,0.054475563703700665
mp-674947,Zr2N2O,0.0027330147499995405
mp-21440,NbCrGe,0.04453772042327842
mp-757853,Na4Ti5O12,0.01034938928571627
mp-853205,Li7Fe(O2F)2,0.09579079535714197
mp-757466,Li3Si2BiO7,0.06573363272435895
mp-35432,Cr2FeO4,0.1431432242857138
mp-849401,Li4Co7(OF7)2,0.061670585925925885
mp-31181,Er3Al2,0.0
mp-684907,U12O19,0.12981821725806775
mp-755667,Ba4Bi3O11,0.04987999125000098
mp-19433,LiScMo3O8,0.13560535423076736
mvc-4858,Mg(CuO2)2,0.0723002932142851
mp-961720,ZrAsRh,0.5244673593333369
mp-570826,VSnRh2,0.10166279062500294
mp-705013,CrBi8O15,0.0029239957007938244
mp-571210,YGaI,0.0
mvc-8941,MgSb3O7,0.2301175915909086
mp-984727,Ce3Br,0.3990861283333338
mp-974309,In3Ga,0.04692897500000015
mp-772040,SbH(OF3)2,0.0
mp-777322,Li6Fe(O2F)2,0.08621597903846112
mp-567864,TlBi(PSe3)2,0.0
mp-684958,TaO10,0.5016933246022743
mp-769897,InCoO3,0.10473343112500633
mp-561138,RbGd(PO3)4,0.0
mp-625055,AlHO2,0.04879178125000029
mp-25143,K2RbGdV2O8,0.0
mp-780399,Na6B4Sb2PO16,0.08127722190116504
mp-582828,La3Ge3Cl2,0.0
mp-764990,Li4V3P8O29,0.047040434280308574
mp-765378,LiMnVP2(HO5)2,0.0307244775490334
mp-26223,Li4Cu(PO4)2,0.026676133166661842
mp-1078579,Fe4C,0.1292080655000074
mp-768476,Li3VS4,0.05999674546874977
mp-778680,Li5Mn8(BO3)8,0.05647213446294508
mp-628908,KICl2,0.0
mp-1033371,Mg6NbCrO8,0.271880036473215
mp-569501,LiCaBi,0.0
mp-504600,NaH4ClO2,0.028056234062499463
mp-7904,CdP4,0.008935772261905228
mp-531201,Ho2CdSe4,0.05888490892857145
mp-984766,Ca(BH4)2,0.0046931815909090355
mp-694966,Li3V2(PO4)3,1.042951476875004
mp-867863,SmCu4Ag,0.0
mp-505531,FeS,0.0
mp-1584,YbIr2,0.0
mp-979265,Ta2CN3,1.2001093551785758
mp-757100,LiCoS2,0.05821644281249672
mp-766453,Li2Cu4S3,0.07260933666666691
mp-1030613,Te2MoWSe2,0.04992258416666751
mp-570409,PrAl3,0.09557776750000002
mp-30485,Ca3Zn,0.009307527083333156
mp-10436,Tb(AlSi)2,0.00580538700000055
mvc-13559,Mg(MnS2)4,0.025245203461538246
mp-560559,TeC4(ClF3)2,0.4579579164903844
mp-12072,UAu2,0.0
mp-31626,Ta2CrO6,0.014667706666676494
mp-772517,Li7Fe4(PO4)6,0.051470295152443946
mp-863743,Pm2SiAg,0.0
mp-1098474,CsMg30SiO32,0.18091569589843806
mp-720815,K2TeH6(O3F)2,0.09367192808823699
mp-978271,Mg3Al,0.028511687115384543
mp-1077506,BN,0.3011641808333323
mp-695873,ZnP3H12NO13,0.032318205750001106
mp-1027036,Te6MoW3S2,0.11115424458333224
mp-1072984,Mg2Si3,0.23267164511111016
mp-1094156,LiMg2,0.026329953333331886
mp-560139,S2XeNO4F3,0.3219748671700016
mp-559355,Hg3AsS4Cl,0.004546855972222375
mp-778355,BaYBr5,0.055968731071430966
mp-16863,Rb3PS4,0.0
mp-761396,LiCrPO4,0.07911807952381089
mvc-9063,LaZnFeMoO6,0.08139371808332553
mp-779854,Li8Mn7Fe(BO3)8,0.005362938368052461
mp-631409,TlTcIr2,0.7714358289062488
mp-554121,NaHf2VF11,0.0
mp-29560,La6Si7Br3,0.0