mpid,formula,e_hull
mp-556163,Zn2SiO4,0.02569990190475924
mvc-11997,Ca(CoO2)2,0.06427007321427247
mp-973960,KScO3,0.19241227025000016
mp-768573,Lu3AlO6,0.032355469749997916
mp-973694,H8PdC2NCl3,0.05467690005555603
mp-1020860,Rb2MgSi5O12,0.0
mp-669918,VSnRh2,0.0073827931250027845
mp-23922,HN,0.03423465951916693
mp-1031389,KRbMg6O7,0.4844194997499986
mp-743890,Mn4Si4SnB2(HO9)2,0.0
mp-695250,BaLa7Mg5Nb3O24,0.039296944833330016
mp-20985,TaPbS2,0.00154058125000045
mp-1097611,GaCuAu2,1.22795136
mp-569986,La5Sn3I,0.0
mp-745100,CoH19S3N5O11,0.09258054338696198
mp-1094681,Mg5Bi,0.06057381749999991
mp-1026755,LaMg14W,0.2413929229687501
mp-695243,Na2SrLa2Ti5O15,0.010993658359996772
mp-7951,ThSe2,0.0
mp-774749,RbNa3Li12Ti4O16,0.0
mp-19487,Ba2Mn(PO4)2,0.0
mp-505801,Eu2Ti2O7,0.0
mp-977581,EuHgAu2,0.045208596250001065
mp-540846,V2MoO8,0.050222181022725465
mp-556458,BaCa(CO3)2,0.011172387500000273
mp-680197,KAgC2(SN)2,0.09057119206696472
mp-867852,Sm2NiIr,0.0
mp-27893,B5H9N,0.07288721056111047
mp-24110,CsH18RuN6(ClO2)4,0.37094027808754415
mp-30937,HgClO3,0.023987967083333842
mp-27629,Cs3Sb2Cl9,0.0
mp-1080295,CeSe2,0.12018206291666722
mp-25155,CsV3(SeO6)2,0.0
mvc-7989,ZnCrAs2O7,0.08532741039772418
mp-1022109,KMg6Ni,0.250043115
mp-768163,Li7(SbS)2,0.07577450636363547
mp-1034771,CsHfMg14O15,0.3398445130241949
mp-984523,CsCa3,0.2633510699999999
mp-672260,PNCl2,0.7289747091874998
mp-696940,TiH12C2(NF)6,0.0
mp-981549,Y3Th,0.054096293125000194
mp-1032147,Mg6FeCO8,0.493465780546873
mp-767013,FePO4,0.00463940541666652
mp-2192,BPt,0.20187346083333324
mp-679999,Re3(SeCl)7,0.0
mp-1029775,BaMnN2,0.0
mp-978994,TmPa3,0.16984463000000005
mp-776920,Fe3Ni2Te(PO4)6,0.03298597954861027
mp-542986,Gd(FeSi)2,0.0
mp-1026362,Te4W3S2,0.09300908222222404
mp-867873,LiTm2Al,0.0004475390625002795
mp-1000774,PuAs,0.0003631550000005035
mp-22156,Hf2InC,0.0
mvc-4549,Ca3Cr2(Si2O7)2,0.049035352391307185
mvc-8014,Fe2(WO4)3,0.11613891617647455
mvc-10628,BaCaMnF7,0.04153121150000594
mp-865017,Dy2ZnRu,0.0
mp-1019732,EuAl2O4,0.0
mvc-15045,CaCoP2O7,0.003605706590908753
mp-755047,Ti3N2O3,0.05150708969500073
mp-1079205,Tb2NiAs2,0.0
mp-566919,NaCaVO4,0.07484272642854961
mp-504576,OsOF5,0.0
mvc-5154,Ca2AlAgO5,0.10787228496031886
mp-1018953,PuSbTe,0.07947476933333243
mp-505785,CuP(HO)5,0.1630498579166657
mp-6336,Na3In(PO4)2,0.00027427964284409967
mp-862792,Pr3AgGeS7,0.0
mp-620571,CaInPd,0.0
mp-5568,Nd3Co11B4,0.018801175723513808
mp-1039846,RbNaMg30O31,0.0935835745039686
mp-779999,Li4V(TeO4)3,0.03619659071875159
mp-1069898,LaGe3Os,0.0
mp-864917,Dy2NiRu,0.0
mp-31488,Li3NbO4,0.0
mp-277,Zr3N4,0.0
mp-767286,Li6CrFeP2(CO7)2,0.05658080314903291
mp-762067,Li4Ti3V3(SbO8)2,0.04280226444192703
mp-1093769,TiCrTc2,3.9584190625
mp-850234,Li3V3P8O29,0.047817205726747865
mp-1097476,ZrScCo2,3.0870079925
mp-779341,Li3Mn4(BO3)4,0.03743942344200768
mp-676684,Sr4Nb2O9,0.0855096773333397
mp-777465,Li3P3(WO6)2,0.03863033687499673
mp-568190,La8C8Cl5,0.0049934901587320715
mp-1095653,Yb3(CuGe)4,0.0
mp-1035197,Mg14VNiO16,0.0586069956250137
mp-18101,K2Cd3S4,0.0
mp-3344,CeAlRh,0.0
mp-32403,Ni(HO)2,0.0
mp-25473,CoPO4F,0.0940682093877534
mp-1025346,GaAsPd5,0.0
mp-615697,Tl(MoO3)3,0.04187113252746855
mp-997527,La11V12O36,0.02266486518008115
mp-645286,Gd(Co2B)6,0.0
mp-976762,NiAg3,0.1901076000000006
mp-867534,LiAg2F4,0.04869551357142754
mvc-594,YV(WO4)2,0.13671080125000046
mp-25058,KMoP2O7,0.0
mp-31394,Ca7Sn6,0.008884055786712253
mp-2664,TiO,0.2711430499999992
mp-1037730,YMg30CuO32,0.04818369449218807
mp-767744,Li2Ni(CO3)2,0.061156198636367336
mp-1038357,HfMg30BiO32,0.18135864871093688
mp-864651,Ta2NbRu,0.0
mp-22369,FeSb6(Pb2S7)2,0.04206604727999963
mvc-12044,Ca3Mn2(GaO5)2,0.11944960941176408
mp-32393,Ni2P5O16,0.09623312394019834
mp-31629,Ta2CrO6,0.0
mp-1036367,CaMg14CrO16,0.05221179406250087
mp-674940,La12Au3I13,0.0
mp-770550,Li2AlCoO4,0.07620970656250757
mp-28793,Mg2C3,0.1726428964999993
mp-780596,Na(NiO2)2,0.039772065674593016
mp-28455,Hg2P2O7,0.0
mp-755003,LaBiO3,0.04033940075001397
mp-570671,CdI2,0.00047182911111098846
mp-985571,LiAg(CO2)2,0.16992117234374948
mp-700136,Fe(PO3)3,0.00010638346153868383
mp-1033280,HfMg6CO8,0.6524509578124995
mp-985290,BaCe,0.4430580000000002
mp-2323,BeCu,0.011295590000000466
mp-775393,Li2Cr3SbO8,0.0
mp-1079126,Eu2FeH6,0.0
mp-1080270,CeSe2,0.5263265637500014
mp-4578,Sr2GeS4,0.0
mp-510057,Gd3NbS3O4,0.01812027749999956
mp-558692,Sb2ClO2F11,0.0
mp-396,YbGa,0.0
mp-761857,LiNb(BO3)2,0.0884131048571426
mp-626755,SrH4O3,0.05722593750000993
mp-540050,Fe3P3O11,0.03805862330882448
mp-505709,CsSmZnSe3,0.0
mp-698480,Sb4H2SO10,0.0
mp-676854,Ta14(CuS8)3,0.0
mp-625565,Cd(HO)2,0.021766702999999943
mp-38818,HfNbB4,0.0
mp-1022606,HfMg6Zn,0.12967855687500007
mp-29481,Rb2WBr6,0.0
mp-650858,Co6Ge2(CO)19,0.4181725875543485
mp-769147,Y2(SeO4)3,0.0
mp-765548,LiVF4,0.08016629083334338
mp-770306,Li4Cr3GaO8,0.016862377187501387
mp-1017036,Mg6BiW,0.33082846875000005
mp-759116,YbAlO3,0.12438400300001895
mp-861492,LiNi3P3O11,0.07898040541666873
mp-24144,Na5ScH4(C2O7)2,0.0
mp-976277,Nd(NiBi)2,0.0660704980000002
mvc-11697,YCuO3,0.2190858148750028
mp-754614,LuNbO4,0.007400074999994286
mp-862364,Sc2OsPt,0.0
mp-22548,Th2CoB10,0.0
mp-1025423,SmGa2Ni,0.0
mp-676820,Tm2Zr8O19,0.0928677398275859
mp-568495,Cu10Sn3,0.023159601923074646
mp-12602,PrZn5,0.0007499915555575497
mvc-11943,CrO3,0.34646929593750203
mp-556125,Na2BHO3,0.0
mp-21672,Eu(Ni5P3)2,0.007304916432225639
mvc-8406,Cr2O5,0.0904972226785743
mp-566172,MnH10S2(NO2)4,0.07401422666165036
mp-982321,Yb3W,0.7639078224999993
mp-779079,Ti3V2P6WO24,0.03442337986111532
mp-768263,Ba2La2O5,0.05147444277777602
mp-1098681,CaMg30FeO32,0.01395918132812568
mp-39027,Y2U3O11,0.21247126749994472
mp-22732,Co5Ge7,0.5702811693749998
mp-27800,K4Ge23,0.0
mp-1036309,Mg14MnSnO16,0.11653485078125135
mp-15415,K2GaAs2,0.0
mp-18775,Fe3PO7,0.03608885613636837
mp-542644,Zn2In2S5,0.07074136875000027
mp-676106,NdZr9O20,0.08523034747916469
mp-1028211,CaMg14Al,0.04489020140625
mp-707467,ThH20C4S2N8O15,0.11191333701687613
mp-677029,Ca2MgAl2(SiO4)3,0.014933570562502219
mp-697981,Cd3H2CSeO8,0.001909774500000516
mp-19248,BaSm2CoO5,0.0
mp-763116,LiV(CO3)2,0.031337312499999825
mp-1074088,Mg4Si7,0.2557393919191937
mp-1096482,LiLa2Ge,2.1607824749999995
mp-1031540,Mg6AlSiO8,0.4660370829296836
mp-782053,Sr9La5Cl33,0.02846044436170292
mp-642422,RbP2WO8,7.144166666961382e-05
mp-1040140,LiLaMg30O32,0.045136195390625744
mp-990232,MnAu4,0.0017111060000001288
mp-706973,H4CS(NO)2,0.12602221429200178
mp-765233,VF4,0.04510257799999806
mp-755255,Cu3OF5,0.024244922465276986
mp-762841,Li3Mn4P3H12O19,0.07335441987804714
mp-1027672,MoWSe3S,0.010998984166668002
mp-553945,SiO2,0.011385282604166493
mp-14715,Pr2Au5F21,0.0
mp-1094917,Ce2Mg,0.07307838888888885
mp-1037482,Mg30ZnCoO32,0.016282975156250323
mp-558368,AgBi2S3Cl,0.0071701691666667955
mp-565706,KNa2NiO2,0.11611206208333424
mp-7022,V5As3,0.04375241000000063
mp-17673,Lu3O2F5,0.0
mp-457,CeBe13,0.0
mp-755543,HoHO2,0.02102793000000069
mp-1029975,Al2(CN2)3,0.0
mp-764427,Li3V2(O2F)2,0.06849612784089665
mp-582142,Ce3Bi4Pd3,0.0
mp-680237,K10Th3(P5S18)2,0.0
mp-1018701,EuSnHg,0.0
mvc-11791,Al2(BiO3)3,0.3014018875000035
mp-1071422,CeAg2,0.0
mp-1026587,SrMg14Cr,0.1508798865625003
mvc-8419,CaV(GeO3)2,0.021912942220834168
mp-582723,Cs3AlAs2,0.0
mp-768098,Na3Ni2P2(CO7)2,0.040014384986406526
mp-622209,Al3Ni,0.0
mp-998606,RbTlBr3,0.020220999000000628
mp-675045,Li7VP4,0.5866933413888877
mp-1018948,Re2N,0.04724499444444241
mp-19001,SrMnO3,0.008327575000000031
mp-556595,Nd4Cu2O7,0.04290760019230877
mvc-10538,MgMo3P3O13,0.034629105277778294
mp-540693,La2CoO4,0.053707174285712256
mp-12094,Li2SnGe,0.15060656614583312
mp-1077435,NbO,0.001814233333334414
mp-631494,SrCrPd2,0.6017508237500007
mp-1009695,CaB2,0.18258523999999896
mp-1025011,FeNiSn,0.3045789573611097
mp-699370,Nb2CoO6,0.05096778611112995
mp-1076095,K5Na3Ta4Nb4O24,0.016562284750003542
mp-356,Nd2Co17,0.0
mp-3457,ErP5O14,0.00935463262500047
mp-1071438,GdNi4Au,0.0013870741666668351
mp-865809,TiTc2Sb,0.0
mp-24461,H12OsN5Cl3O,0.0203604591040012
mp-30354,ScAg4,0.0
mp-541813,RbMgF3,0.0
mp-23472,Re(AgCl3)2,0.0
mp-567113,BaCrO3,0.06688848167857309
mp-1094622,MgGa2,0.06444516333333494
mp-776808,Li11Fe6F29,0.08666395983092112
mp-676704,Yb10Ti6O27,0.4567414248546502
mp-1099087,Mg14CoSn,0.07804774148437499
mp-725737,AlH18Ru(NF)6,0.003940203988124225
mp-1080107,UCo,0.0
mp-1027758,LiMg14Co,0.07723138898437497
mp-13694,PrCuO2,0.0
mp-1030309,Te2MoWS2,0.11783322416666575
mp-17254,TlGaSe2,0.0
mp-687227,MnSb2Pb5O11,0.0
mp-642682,CsHO,0.03024707750000033
mp-1080526,Zr6Ga2Fe,0.005984902444443385
mp-1019524,Ba3P6(N4O3)2,0.0
mp-1921,ThTe,0.0
mp-773922,Li8Ti6Mn7O30,0.09314649950980593
mp-1013713,Ba3BiP,0.7970912749166712
mvc-15495,Mg2Cr3O8,0.10702338576923064
mp-27699,S3(NCl)2,0.12227775993642885
mp-764646,Mn2CrNi3(PO4)6,0.08479476460937185
mp-27487,Li2ThN2,0.0
mp-581693,BiS,0.22740980208333195
mp-1016475,CsMg6Ga,0.2832088131249999
mp-1079831,HfReSi,0.0
mp-8320,SmScSi,0.0
mp-570183,Pr(AsPd)2,0.0
mp-27381,CsSnI3,0.0
mp-31433,LuNiSn4,0.04609823416666625
mp-767926,Li4Ti4Mn4VO18,0.09008698760081303
mp-1021697,Mg6TiV,0.2381192904166665
mp-27869,Ba2PCl,0.0
mp-1079862,SrTl2Pd,0.0
mp-775198,Ti3P6WO24,0.0
mp-561344,Rb2CrF5,0.0
mp-639100,MoF3,0.0
mp-990430,SrTa2H2O7,0.08637570416666662
mp-758088,Ba6Bi6O17,0.04737068810343813
mp-558541,H9C3SeSN2Cl,0.3781362905533081
mp-849992,La20Cu9O40,0.06386077463768114
mp-676391,RbAg4I5,0.08805293837500061
mp-1078849,Ca(GaP)2,0.0
mp-70,Rb,0.0
mp-699284,Li2HN,0.0
mp-772394,Li2NbNi3O8,0.04442769746428343
mp-853157,Ni6OF11,0.033203780810184824
mp-29209,Ba(MgBi)2,0.0
mp-11597,NdBPt3,0.0
mp-504907,K(MoO2)4,0.02736358057692101
mp-773349,Li5Mn3(NiO5)2,0.06542040675892569
mp-5005,Mg3(BO3)2,0.0
mp-1018066,CrSnRh2,0.0
mp-556323,Ba5Fe5O14,0.029551040486100355
mp-976437,Gd3MnB7,0.01184911618181772
mp-1025361,Gd2Re2Si2C,0.0
mp-862969,PmYMg2,0.001969990000000088
mp-565883,Li2U3V2O15,0.001836743636363991
mp-1076487,Sr7CaMnFe7O20,0.014263357638932384
mp-28672,Zr2TeBr12,0.0
mp-33392,Sr(CeS2)2,0.03264544678571557
mp-991078,CeCo5,0.017987803782052225
mp-1099956,KNa7V6(MoO10)2,0.08127573736110527
mp-573855,La7Ni3,0.0
mvc-2592,ZnCr5O7,0.21048229384615347
mp-631378,Cs7NbIn3As5,0.0
mp-770110,Li4Nb3Fe5O16,0.07291619017854245
mp-866052,Gd2PdRu,0.0
mp-764442,Li3V2(O2F)2,0.06897105359847266
mp-567743,AlSb2(TeCl2)2,0.3593088646759255
mp-567462,Sc3RhC4,0.0007411802916656995
mp-573514,CsSb,0.0
mp-28808,TlReO4,0.0
mp-21419,CeMg2,0.035530148888889716
mp-566240,Na5WNO4,0.05105787234848602
mp-1036325,CaMg14NbO16,0.1405879527343732
mp-867176,PrCdAu2,0.0
mp-1099243,CsLiMg6O7,0.4322994956666664
mp-998552,BaHfO3,0.0
mp-735545,Rb2FeH2Cl5O,0.0
mp-1009133,MnCo,0.0
mp-761677,LiCoPO4,0.0032507951785731852
mp-765045,Li5V3P8O29,0.038142357240725566
mp-1025029,PrHSe,0.0
mp-762817,LiMn2(PO3)5,0.050889182608695904
mp-1026382,KLaMg14,0.13286439421875018
mp-1079373,La2TiNiO6,0.1034035097499988
mp-773192,Gd2(WO4)3,0.03373429250001081
mp-778111,Li3Bi3P8O29,0.08972892169573399
mp-861172,LiFe(SiO3)2,0.030711834999983086
mp-569913,Ce3SiPt5,0.0
mp-27562,Na2Pd3O4,0.0
mp-780140,Li5(CoO2)4,0.1023250566176488
mp-11670,BaYSi4N7,0.0
mp-1077791,ZrSc2,0.0
mp-9427,NaYP2O7,0.0018570823484900245
mp-765760,LiMn2OF3,0.09375806464285574
mp-12903,YAgTe2,0.0
mp-675750,Ca(Ga3Te5)2,0.0
mp-542606,Pu,0.1892282572426467
mp-583084,Rb3Er3(PS4)4,0.0
mp-19890,URe2,0.014090620833330902
mp-18984,Na2ZrNi(P2O7)2,0.031906620073383074
mp-542789,Li14Cr2N8O,0.16907752920000174
mp-765276,Li5Mn5CoO12,0.07092799971010155
mp-17922,Ca2P2O7,0.0
mp-1023289,Mg6AlW,0.2769121896874997
mp-569626,MgCl2,0.19982381166666707
mp-755488,SrTaNO2,0.0029700479999821283
mp-1095188,CaNiGeH,0.030218111562501093
mp-1080273,CeSe2,0.5428590470833337
mp-24150,LiNd2HO3,0.02263943178571548
mp-540453,Li4FeP2O9,0.056023034335940025
mp-23660,KNa22C2S9ClO42,0.0
mp-709021,CaTi2(HO3)2,0.0
mp-555393,KBi6BrO9,0.0
mp-1096809,Al2ZnS4,0.09504400821428673
mp-23583,Cs4BiSbCl12,0.0
mp-568322,Sr3Li3(NiN)4,0.0
mp-770092,HfP2O7,0.0
mp-570985,SiC,7.827638888890931e-05
mp-505310,Sr3Fe2Cu2S2O5,0.022186683124991724
mp-674,LaPd3,0.0
mp-1097090,Ca2PbAu,1.543919135
mp-26409,LiTi(PO3)4,0.03965953592856675
mp-540368,Li2Ni(PO4)2,0.11318307644230785
mp-504984,USiNi,0.0
mp-695936,GeH10(N2F3)2,0.06984288341631473
mp-618324,ZrCo3B2,0.0
mp-19573,Mg3V2(SiO4)3,0.11116115025001516
mp-20867,Eu(AlGa)2,0.0
mp-1014281,C3N,2.0203309987800013
mp-773338,Mn(SbO3)4,0.04060173031862924
mp-707238,KPH2O3,0.1240797650135992
mp-720817,MgAsH15O11,0.010696674419664376
mp-570504,Yb11InSb9,0.0
mp-769481,Y4Ga2O9,0.020552921833335347
mp-13873,Ca(GaSe2)2,0.0
mvc-7639,Mg2Sb3O8,0.2738518349038426
mp-504520,RbEu3F10,0.0
mp-1020107,LiCaAl3N4,0.012822346666665041
mvc-12826,Ca3(CoO3)2,0.2960361115908956
mp-19747,Ni3(PbSe)2,0.08215501571428607
mp-862947,Ba2BiAu,0.0
mp-676278,Ca2SiO4,0.17699825714285744
mp-782705,Cr3O8,0.04786276840909043
mp-9936,DyBC,0.4432311036979169
mp-1075504,Mg5Si6,0.21114740308081087
mvc-2546,Ta2TeO8,0.23778269909089825
mp-769460,Li9Mn12Ni3O32,0.003544408292412981
mvc-669,Cr(WO4)2,0.15186258181816825
mp-1097703,Al2OsRu,3.612286420625
mp-1025494,EuClO2,0.4384975548958252
mp-1079596,Er2NiSn6,0.0
mp-560739,K3Li3TeO6,0.0
mp-554623,Sm2Ta2Cl2O7,0.0
mp-31328,MnInPd2,0.0
mp-558776,Na6PbO4,0.060611899318178786
mp-1094610,Mg2Ga,0.09126384055555192
mp-694012,Ca3YAl3B4O15,0.033809386858967734
mp-1027696,TeMo2S3,0.06003377124999965
mp-10923,Ca2Co12P7,0.0
mp-995181,SnGe,0.4890617150000001
mp-769263,TbInO3,0.05645776912499921
mp-1067833,SnI3,0.16415748401041652
mp-30886,YZn12,0.0
mp-849597,V2O5,0.009230380714283726
mp-849686,V3(O2F)2,0.02944638166668057
mp-1026413,KRbMg14,0.1820157550000001
mp-971803,ZnHg3,0.13723553375000008
mp-569892,Ca9B2(CCl2)4,0.0
mp-1425,TiCr2,0.0
mp-31903,Ta2MnZn2O8,0.01677757288461379
mp-776819,LiFeF5,0.051133533928570785
mp-1021679,Mg6VCd,0.1649116475000003
mp-568295,Pr8(BCl)7,0.0
mp-1077126,DySiNi4,0.0
mp-37449,Nd5AgS8,0.02090125656250485
mp-1013528,Ba3N2,0.6790122370000002
mp-773741,Fe4O3F5,0.07399288458332531
mp-1096490,MgCdPt2,2.05678545625
mp-504858,CoCu2O3,0.08536678249999953
mp-764101,Ni6OF11,0.03757162803240721
mp-12782,YbAl2Ni,0.0
mp-777951,LiMnF3,0.018346049749998983
mp-36738,Fe2CoO4,0.03470467976191749
mp-1116,Sr2Mg17,0.0
mp-1096405,BaSr2Ca,1.44235213
mvc-318,Sr2YV2GaO7,0.16056792906208095
mp-558241,TaTl2AgS4,0.0
mp-541895,Na2(ReS2)3,0.0
mp-861686,Li5Fe5Si7O24,0.0722780460975363
mp-686295,KSn2F5,0.0431523135937546
mvc-627,AlFe(WO4)2,0.12198424564102694
mp-1074858,Mg7Si4,0.2396436590404045
mp-1099764,K2Ta2O5,0.18663152222221768
mp-1040382,Mg30TiNbO32,0.08405646121093824
mp-770230,Li4CrFe3O8,0.0007887015625014371
mp-24216,ZnHgAsHO5,0.0
mp-763626,LiFe(PO3)4,0.09809338624999507
mp-561418,Zr3O,0.0
mp-531975,Zr3(Bi5Br9)2,0.0489535337096747
mp-744266,Sr20Fe3Co7(MoO6)10,0.0019724764875137524
mp-1097561,AlZnPd2,1.932488658653846
mp-560982,K2Cd(NO2)4,0.07347541517946699
mp-1076961,Er2GeRh3,0.0
mp-850372,Li2MnFe(BO3)2,0.0032909570833306034
mp-767137,Li3Sb17S27,0.013978702234035191
mp-865038,HfTaTc2,0.0
mp-560631,KUSi2O7,0.0
mp-753102,La2Bi4O9,0.013577561000007954
mp-6938,ZnRh,0.0
mp-568195,U6Mn,0.04617903142857216
mp-1094366,Mg5Ti,0.11432812638889135
mp-13305,SmSnAu,0.0
mp-574112,Ti(AlCl4)2,0.03886294568181725
mp-1096795,YAgS2,0.010430442291665898
mp-779491,BaP4O11,0.019815277812500483
mp-1080238,MnHO2,0.10024652835937964
mp-771557,Li5V2Co5O12,0.08450444850694527
mp-685413,LiNbO3,0.11521110530769008
mp-27133,BiPS4,0.0
mp-773758,Mn3(OF2)2,0.03866630638888946
mp-1080080,LaAlO3,0.0008877090000005693
mp-1035627,Mg14NbFeO16,0.1928909516741033
mp-696189,TlH6(NO4)3,0.0
mp-4718,NdTaO4,0.0042003391666671774
mp-761657,Li2CrSiO4,0.0948236718750044
mp-1016321,SrMg6Nb,0.3280782451339284
mp-625832,Ba(H2O3)2,0.3338182331818178
mp-1078668,NiPbO3,0.0
mp-1096843,BaCuS2,0.10277380708333084
mp-11830,LiCeSn,0.16187633499999787
mp-558285,GaBiO3,0.0023703998750050914
mp-19300,La2MoO6,0.0
mp-644281,Mg7TiH16,0.08840824645833356
mp-15239,Nd3Ga5O12,0.0
mp-764694,LiVF5,0.07088399785714206
mp-752537,Sr2HfO4,0.046442526785714484
mp-768883,Sn2(SO4)3,0.08222618147057759
mp-1099116,CeMg14C,0.24469755671875104
mp-774126,Li3Ni4SbO8,0.0
mp-29904,SbXe2F9,0.0
mp-774085,Li5Nb2V3O10,0.08390610650000062
mp-1008802,ReC2,0.9064944720833328
mp-10270,ScCo3C,0.0
mp-764661,Li3CoNi3O8,0.07010530199998932
mp-972257,LaTb3,0.03729724874999985
mp-504644,KCeF4,0.0
mp-504587,Fe9Cu9S16,0.09534407191176444
mp-1095370,BiPdSe,0.0
mp-773952,LiP5WO15,0.02022234276513668
mp-760410,BePO4,0.06081547302082858
mp-554074,NbS2,0.0023093016666670962
mp-9158,LiCuO2,0.0
mvc-10874,Ba(FeO2)4,0.2322537447596132
mp-19954,Al8Cr5,0.07765988246154176
mp-1021712,Mg6VSn,0.14895704124999964
mp-569516,HfNi5,0.015856249833333003
mp-999187,SiHgP2,0.8606567431250007
mp-28413,Na2(GaSb)3,0.0
mp-1008681,Sc,0.7203188999999997
mp-780126,Li3MnSi2O7,0.05761754006801921
mp-9339,NbP,0.0
mp-569023,Co3Se4,0.022162808571426496
mp-1014303,Cr3N2,0.0811607119999973
mp-28774,KSnF3,0.0
mp-601871,H12W3C4S2Cl9O2,0.3119203074913193
mp-1026654,Mg14SnC,0.28758363390624964
mp-10366,Nb2Co3Si,0.0
mp-27526,K3InF6,0.0
mp-1096712,SrLaTl2,1.8881063725000005
mp-557482,Ca5As3O12F,0.0
mvc-8914,LaMgVFeO6,0.10845443550000587
mp-634979,TbOF,0.4930609116666664
mp-1096872,B2(CN2)3,0.7523271729981813
mp-777188,VOF,0.04466144750000023
mvc-8370,Ge2MoO6,0.06268603999999556
mp-761325,Li2MnSiO4,0.018492206250000358
mp-862743,LaCdAu2,0.0
mp-1079699,PrAlNi,0.0
mp-763393,KFeP4(H2O7)2,0.0
mp-843,Th2Fe17,0.01405621947368374
mp-849376,LiV2(PO4)3,0.015402731250000912
mp-10208,NiMoP2,0.0
mp-773413,Na5LiMn2P2(CO7)2,0.015148708910257547
mp-980198,TmLuZn2,0.0
mp-756573,Cu(TeO3)4,0.08401004779411902
mp-600190,LaH24C3N3(Cl2O)3,0.04102324296875004
mp-21947,Ce(SO4)2,0.0
mp-1079082,Ga2S3,0.0013015559999987047
mp-14276,RhPb2F7,0.0
mp-27146,Cs2Sb4S7,0.0
mp-21533,CuP2PbO7,0.0
mp-763022,FeOF,0.0633028808333318
mp-754158,KNdO2,0.0
mvc-5274,Zn(CoO2)2,0.08044721384398558
mp-541403,Hg7(P2Br3)2,0.022126306288515085
mp-1009650,RbSb,0.91847079125
mp-768220,Li2YPCO7,0.09525168083333392
mp-651051,Te2W3(CO)15,0.5006301453571442
mp-705869,Mn2CuO4,0.051230930160706116
mp-705086,CeTl5Ni2(NO2)12,0.16707628026931953
mp-866089,GdSnRh2,0.0
mp-32309,Sr4Re2NiO12,0.010678293368422407
mp-763444,Li5V(PO4)3,0.09321463785714723
mp-20800,ZrIn2,0.0
mp-770278,Li3Mn2P2(CO7)2,0.03264626021739403
mp-865385,V3Re,0.0
mp-561634,BaNdMn2O5,0.0
mp-570706,CsTiCu3Se4,0.0
mp-25639,Li2VPCO7,0.029978783749986526
mp-10857,Tm(BC)2,0.005270879999997646
mp-1080275,CeSe2,1.6353617929166668
mp-770745,Li2Cr2O7,0.06653024882575752
mp-765546,Li2V3CoO8,0.076223558154763
mp-555480,K3Co2F7,0.0
mp-762685,Li3V3(FeO5)2,0.0933958364583214
mp-1034101,NaMg14TiO16,0.042002059392363116
mp-22483,NaInTe2,0.0
mp-1027334,Te4Mo3W(SeS)2,0.09451122750000084
mp-779229,Fe6O7F5,0.07659489593750468
mvc-881,ZnNi3(P2O7)2,0.05543677144886328
mp-1080233,CsSrCl3,0.007255376999999008
mp-1033115,Mg6AlCoO8,0.1741602189062501
mp-541152,Al2Si2H4O9,0.013796590735293712
mp-778817,Li4Mn3Nb3(TeO8)2,0.08968360446429102
mp-999139,TaHgS2,0.02596887250001512
mp-779959,Li3Co2(NiO4)2,0.015154442888888118
mp-604273,Cu2GeP2(H5O7)2,0.026203740379947327
mp-30817,LiAl2Pd,0.0
mp-761569,Li2MnP2O7,0.06529926718749922
mp-764732,LiCo2(PO4)3,0.08329194118057615
mp-29195,LiPO3,0.0
mvc-10150,MgCr2O4,0.07964919952381068
mp-504189,Li3Fe3(PO4)4,0.006962779166669542
mp-743583,Ca2Fe3Sb(PO4)6,0.0
mp-628859,KSrVO4,0.0
mp-865988,LuCdHg2,0.0
mp-779839,Li4Ni2C4SO16,0.09616910949073976
mp-24889,Fe4Co3(PO4)6,0.03141112054054318
mp-770124,GdTa7O19,0.0005949044444442109
mp-10418,RbSbO2,0.0
mp-849416,Li4Fe2Cu3O10,0.09305384483552626
mp-19804,In2Co3S2,0.0
mp-1035344,LiMg14BO15,0.17966471911498694
mvc-725,Ba2AlAg3O8,0.35595062549107226
mp-973066,ScGeRh2,0.008637093958332898
mvc-4506,Ca3V2(Si2O7)2,0.02375226461956892
mp-1094772,CeMg2,0.09556234444444467
mp-8570,Ba3Zr2S7,0.0
mp-763175,Li2VO2F,0.09520226833333023
mp-1034141,Mg14TiNbO16,0.16833026023437636
mp-766057,V4OF11,0.001024929687499565
mp-862710,Sc2CdTc,0.0
mp-556877,Ba7Ru4Br2O15,0.005330994345261075
mp-28667,Ta(NiTe)2,0.0
mvc-6421,Ca(WO2)2,0.33870272142856983