mpid,formula,e_hull
mp-671913,MoSe2Cl4O,0.01938977456949864
mvc-10555,Ba2Tl2Zn3(CuO3)4,0.1933379118478253
mp-687152,Co5Te4(ClO6)2,0.008732517966233644
mp-865726,CsBa2Cr2F11,0.0
mvc-8609,MgSn2(PO5)2,0.14602970499999926
mp-864882,Yb2PdRh,0.0
mp-759874,LiCu(PO3)2,0.0853133439166589
mp-1095896,YMgPt2,2.06373
mp-562442,Cs2SeO4,0.0
mp-1038002,CaYMg30O32,0.0582537610156253
mp-1036730,Mg30SiSnO32,0.1485453867578128
mp-776494,LiVF4,0.08298187333334273
mvc-16083,Al(MoS2)4,0.024075468743588683
mp-1025402,SrCu,0.0
mp-579731,KV4Ag11O16,0.009297606093749522
mp-976349,LuH2ClO2,0.0
mp-762038,Li4CrCo3(PO4)4,0.032908859665181645
mp-551702,Ba2CdReO6,0.0
mp-754184,ErAlO3,0.08570226275000438
mp-555538,AlPS4,0.5486996508333322
mp-21591,ZrCrSi2,0.027127647083332814
mp-9198,Fe(SiP)4,0.0
mp-675425,Ho14(PbS8)3,0.05934742776422741
mp-704632,Ba2Sm2Fe4O11,0.020474481776331814
mp-753846,Mg(GaO2)2,0.02156888142858282
mvc-4527,Zn3Si4(SnO7)2,0.1626286893478266
mp-632413,CoCl2,0.04223501999999879
mp-777559,LiFeF4,0.027607961018527586
mp-1026523,Mg14NbBi,0.08149133062500002
mp-782651,Li3MnNb4O12,0.03205574918749576
mp-29305,Re2PbO8,0.0
mp-762289,Li2P2WO8,0.035980000384609134
mp-984358,Au3O,0.3835171212499997
mp-27291,PaCl4,0.0
mp-16227,Zn3Ni2Ge,0.007718635337838453
mp-1087542,UNiC2,0.02501974974999932
mp-756402,YHO2,0.019613618749997563
mvc-16793,Ca(FeS2)2,0.2712612542857133
mp-19179,Ba2V(SiO4)2,0.0
mp-756474,Rb3YO3,0.009775912142857557
mp-1030752,Sr8Co3N8,0.0
mp-530164,MgAl2O4,0.0074453769642861545
mp-705069,LiMnPO4,0.041612859047619466
mp-17560,Na2UO4,0.008371489285704747
mp-851027,LiFeO2,0.0
mp-625718,Y(HO)3,0.024460005357134662
mp-570325,AuSe,0.00912346874999992
mp-766666,Li4V3P8O29,0.05364941518939848
mp-850993,LiMn4(PO4)3,0.05967040799999701
mp-28639,Tl2GeTe5,0.005078635468750203
mp-775601,Li5Mn3Bi2(PO4)6,0.07760246768750713
mp-698627,Ti5Fe11O24,0.038425735115376725
mp-764641,Li2CoSiO4,0.004798187499993389
mp-1099193,YMg14CO16,0.3104178118164045
mp-566745,Ba5Li2(WO5)3,0.0
mp-504662,SbClO,0.0
mp-1030526,TeMoWSe2S,0.0782872525000009
mp-675462,Mo2RuSe4,0.003039228571423358
mp-978520,SmDyRu2,0.0047007798749998395
mvc-15019,V2(PO4)3,0.13194294705883713
mp-1079664,Nd2InNi2,0.0
mp-865249,TmSnRu2,0.0
mp-1096710,TiV2W,4.262266885833332
mvc-1077,Ba2Ti3AlO7,0.42100354014423225
mp-1077018,Sm2Sb,0.023075009166666938
mp-775242,Li2MnCu3O8,0.10777302102678377
mp-1077776,ScB2Ir3,0.012592699444445188
mvc-3494,AlBiO3,0.5171770006249945
mp-769901,ZnFeO3,0.1120830403749995
mp-43048,NaEuTiNbO6F,0.012191892954556138
mp-21292,Tm3InC,1.910414329333333
mp-567776,Cs2AgAuCl6,0.0
mp-570268,MnSbSe2I,0.0
mp-1096740,Ti2FeRe,3.9551820300000013
mp-20041,Sr2EuCu3(PbO4)2,0.02637790250000016
mp-14209,LiYGe,0.0
mp-1028441,WS2,0.0005651341666403907
mp-745134,Fe3P2(H2O3)4,0.002846570999907705
mp-775632,Li4V2CrTeO12,0.10344569647222457
mp-19489,SmCo(BO2)5,0.003091234566184653
mp-973866,LuOs3,0.5510229325000005
mp-27189,Si3Cl8,0.01470138522727238
mp-769649,GdTa3O9,0.027671893076940183
mp-1100375,CaSnS3,0.10968655524999882
mp-34650,LiMn3O4,0.034929593125001546
mp-686041,Li7Nb8O24,0.03580497947114658
mp-765978,Li2MnOF3,0.0955818251785665
mp-1077750,YbCu4Pd,0.0
mp-633671,Mn3AgAs3(HO6)2,0.0
mp-28021,Sr5(Br4Cl)2,0.005056213999998782
mp-565254,Na3VSO3,0.03752871414062309
mvc-4316,Y2Cr3(SiO4)3,0.1864278026249941
mp-1026423,Mg14GaBi,0.0316051734374998
mp-861884,AcGaTe2,0.0
mp-621581,P3Rh4,0.017438202142856518
mp-769008,Li4Bi3O8,0.06577876186113317
mp-779955,Li3MnFe2(BO3)3,0.004451719814814403
mp-866481,Co2(SnTe)3,0.0
mp-540234,Li2NiP2O7,0.025253951041658063
mp-657985,Ce5C2Cl9,0.09344914685096484
mp-561203,F2,0.0
mp-850961,LiFe2OF5,0.06328960993827337
mp-568450,SrAlH5,0.0
mp-25753,FeH10N2OF5,0.0
mvc-774,Sr2YGaFe2O7,0.05018571455128562
mp-540801,K3Mn(CN)6,0.15026910531249893
mp-5197,ErB2Ir3,0.0
mp-770036,Li4Mn3V2Cr3O16,0.05423401132691552
mp-756868,Rb3DyO3,0.020438334999999697
mvc-2699,ZnCrO2,0.30397005312500003
mp-554778,NaY(SiO3)2,0.010246037749984891
mp-25094,NiWO4,0.0
mp-975237,Rb(TeMo)3,0.0
mp-560145,BaBi4(ClO3)2,0.12802863101924444
mp-557807,CsK2AuO2,0.0
mp-973157,Ge3P,0.43154232172619
mp-1095147,MnInO3,0.022586387312499845
mp-680602,Ce5Rh4,0.023668173888887967
mp-1029943,Ca3GaN3,0.0
mp-1078274,Ca2SnGe2,0.005995276333333521
mp-32635,Sr3P2,0.0
mp-973572,La2TlHg,0.0
mp-505574,Co2Mo4C,0.008954767500002347
mp-772150,Li2Ti13O22,0.06005805756756999
mp-1024968,PuB2Rh3,0.09624401154453999
mp-677162,Yb(BiTe2)2,0.09299166714285656
mp-780498,LiCr3P3(HO6)2,0.04379393512188123
mp-972370,Yb2InHg,0.01248063499999974
mp-1565,ZrO2,0.07007402750000047
mp-768079,Li7(NiO2)11,0.03359056868750798
mp-781011,V3OF11,0.0658079691666611
mp-775789,Li2VF6,0.07249326277779122
mp-1098341,KMg30TiO32,0.05819153687500034
mp-777766,Li3NbHO2F7,0.12008061084821532
mp-763349,Li2MnF4,0.07127233892857276
mp-642250,LaFe12O19,0.0638171380468755
mp-1455,MnS2,0.11067492083333352
mp-761294,V2Ge2O7,0.024508945113637992
mp-1016326,Mg7Cr,0.13991364250000027
mp-29266,CsS,0.0
mp-1097248,Y2MgTl,2.378813516875
mp-760790,LiCuF4,0.09506385111111193
mp-978495,SiB,0.41276879541666656
mp-21869,Gd(Sn3Ru2)2,0.0
mp-510537,Ca2NiOsO6,0.0
mp-778612,Na3CuO2,0.010079183749997613
mp-23143,Ca2Cu(ClO)2,0.010945273571423721
mp-1036237,Mg14MnFeO16,0.008671407656249741
mp-680312,La6Ti3Se9O5,0.0
mp-34141,Sr(LaS2)2,0.0
mp-676956,Zn8B4H3O15F,0.015973458104836524
mp-25022,Mn4Be3Si3TeO12,0.0
mp-637188,Ag2WO4,0.037690421607144316
mp-5042,YTiGe,0.0
mvc-2726,Ca2Ta2NiO8,0.09477301598901457
mp-720727,GaH15N4(OF3)2,0.4403596351247616
mp-1079377,Si2W3,0.2067714099999982
mp-8725,HfSnS3,0.0
mp-722278,BaSiP4(HO7)2,0.0
mp-761994,LiFeCO4,0.0442181532142838
mp-1077938,Pr2CrSe4,0.14371295309523813
mp-1036398,Mg14AlBO16,0.2286674196679685
mp-647553,VP2Cl7O4,0.03537439474107185
mp-1076954,GdSi2,0.0
mp-1039249,MgCd3,0.04132149937499996
mp-1095493,CdSe2,0.08080034963541705
mp-982384,TbH3,0.0
mvc-16442,CaCuF4,0.0029566550000001968
mvc-9147,MnZn(GeO3)2,0.016729899520832703
mp-1036975,Mg30NbCoO32,0.07054945499999743
mp-554443,Na6Se2O9,0.0042451748529410685
mp-1058887,TlC,2.36514773875
mp-767728,Li6Mn(OF)3,0.0888593192307745
mp-979026,SmTm3,0.009565555624999613
mp-1009817,TaC,0.4111406500000001
mp-978303,Mg3Re,0.4152026337499999
mp-7191,Sr3GaN3,0.0
mp-861549,Mn11ZnO16,0.004856469642813721
mp-636359,VFe2Sn,0.12999466921875236
mp-1079055,LaCrAsO,0.059472366666666325
mp-27878,NaSb5O8,0.00045425669642984445
mp-1097446,Y2TcPd,2.758712099374999
mp-1018806,MoSeS,0.013551151666666428
mp-756988,Nb5OF14,0.1268090021750039
mp-862682,Ba2Ga2O5,0.1764549490370353
mp-35220,PHN2,0.002012121249999943
mp-9692,K2GeSe3,0.0
mp-1027823,LiMg14Cu,0.044872533437499966
mp-715438,Fe3O4,0.06207167214286535
mvc-6738,MgCuW2O7,0.179252577121213
mp-1098655,Mg30AlCO32,0.1431413048925778
mvc-9575,CaTi2O4,0.13608412017857674
mp-773330,Li2Mn3SnO8,0.09680776843748796
mp-849463,Li11(FeO3)4,0.12524134731482395
mp-744256,MnH5SO7,0.005487717962668448
mvc-10447,MgV4O9,0.0854236282142935
mp-583297,Ba6Nb4S13O3,0.0
mp-1093562,Ba2TlGa,1.2880598225892859
mp-977475,ZrInPd2,0.0
mp-859126,Ba3CaI8,0.04594941447916634
mp-686736,Sr5Li25La7(BiO6)8,0.0204496003348007
mp-981364,YbSm3,0.07794339562499975
mp-7144,Sm3AlC,0.0
mvc-10357,BaMgSbF7,0.06110911900000016
mp-561165,VBi2O5,0.08510774548957123
mp-1095433,TmGa4Ni,0.0
mp-777915,Na2FeO2,0.07318450016666489
mp-604610,K2CoH12(SO7)2,0.0251350787096678
mp-542629,Rb2Mo9Se10,0.0
mp-765821,VCo3O8,0.06586643005208881
mp-541378,CsBiS2,0.0
mp-3144,HoNbO4,0.0
mp-28085,KAs2F7,0.0
mp-1067900,V2NiSb,0.31291588321428865
mp-1095618,PtN2,0.2004675134133356
mp-559724,Ta4S9Br8,0.0
mp-4962,CoSbS,0.010179868333336728
mp-569843,MnBr2,0.0003051933333333423
mp-774247,Na3FeBSO7,0.06741106076923488
mp-720719,Ca2Y2Si4H2CO16,0.0012022280555541442
mp-684602,W2C,0.06972768833333554
mp-769613,Li4Ti3Ni3(WO8)2,0.0850336029464307
mp-753022,NaGa5O8,0.108037344285715
mp-17228,K2Ni3S4,0.0
mp-866110,Ho2OsRu,0.0
mp-12360,AgSbTe2,0.6521331259375005
mp-624620,CsMnF3,0.0
mp-779204,LiFeP3H8O13,0.049536738557693034
mp-675634,KBi2F7,0.05305133837500176
mp-1096980,FeAgO2,0.4389585349999994
mp-769494,Na5Fe2P2(CO7)2,0.014400407599985954
mp-1036650,Mg14MnAlO16,0.10301110029750048
mp-570900,K4Sn9,0.0
mp-775750,LiFe(Si2O5)3,0.10061372494564937
mp-1074641,Mg2Si,0.1569892736666687
mp-1094723,CeMg2,0.04710553194444467
mp-1030784,TeMoWSe3,0.0429488408333345
mp-557880,KPO3,0.004158654000006479
mp-765723,Na3Li6Mn5O9,0.07628387025086703
mp-1035674,KMg14CO16,0.3445421841210887
mp-10620,LiPrO2,0.009743143750002405
mp-766723,CoTe2O5,0.018443433828122302
mvc-1132,Ba2YNi3O8,0.07609367473213703
mp-1069139,SrSi3Ni,0.0
mp-3102,TaCuS3,0.0
mp-1094870,YMg,0.1492510199999999
mp-554722,Y3GaO6,0.004690424500001456
mp-685712,Na2PrO3,0.2171522237499968
mvc-9863,LaTiZnCrO6,0.1219677990000001
mp-1095916,Si2TcRh,3.136131605625
mp-998965,TiInFe2,0.1670315431249998
mp-985305,Ac3In,0.0
mp-559470,AgPbBrO,0.05232092073863104
mp-1078776,InBiS3,0.007105066125000725
mvc-16451,Ca3ScCoO6,0.0
mp-1033804,Mg14BWO16,0.31308936533854137
mp-9323,Tb2S3,0.0
mp-29566,CsNaGe2,0.0
mp-27747,PdI2,0.0
mp-647226,TaSbO4,0.1707739602083329
mp-637249,LiEu2Ge3,0.0
mp-1022063,Mg6CuSb,0.12494296250000048
mp-1096832,Al4ZnS7,0.05624483013888959
mp-859110,Ta7BiO19,0.0033135915741180355
mp-25940,BiP2O7,0.051570025437498224
mp-1016231,CsMg3,0.25510567500000003
mp-676110,Tb14(PbSe8)3,0.04326127024390214
mp-30658,VGaNi2,0.02193936194444213
mp-765881,LiFeSi3O8,0.04890514115382949
mp-1079248,K3NaH4,0.0362396812500001
mp-1018706,GdS2,0.057931973333333886
mp-756758,CuH4(IO4)2,0.008877219333332853
mp-1093930,KTl2Pb,0.9148350835937502
mp-767217,LiMn(PO4)2,0.0871951907291697
mp-23005,Bi4Te7Pb,4.1069166665685934e-05
mp-562480,TlIn5S7,0.0
mp-762286,Li6(NiO2)5,0.05221564761904585
mp-775291,Li2Mn2Cr3O12,0.02220283543856993
mp-780580,LiMnPH2O5,0.06796640874999492
mp-29585,K4CdAs2,0.0
mp-763081,FeOF,0.06584892805555675
mp-763222,NbFe3Co2(PO4)6,0.0481844328704053
mp-971855,Tm2Co3Si5,0.0
mp-770262,Li2Mn2(SO4)3,0.008223187631577922
mp-555434,As2O5,0.0
mp-769873,Li3MnF6,0.03782911833332836
mp-1095230,CaSeO4,0.0
mp-1026978,Te4MoW3S4,0.12546671312500024
mp-770908,CoO2,0.11322216083333192
mp-755082,Sr3(AsO4)2,0.0
mp-541452,Co2PHO5,0.0
mp-541877,TaTeCl9,0.009471088863636012
mp-15148,K4Nb2S11,0.0067347938585440295
mp-995237,SiH6CI3N,0.1316798597786475
mvc-2668,Mg2Ta2NiO8,0.012555283974357678
mp-978564,SmYTl2,0.001910863750000047
mp-761647,Li2Si3Ni2O9,0.07850193822916296
mvc-6663,YCo3F15,0.030189284078939064
mp-1095320,LuBPt2,0.0
mp-864699,NdRh3,0.0
mp-861937,Ba2AsAu,2.589870370517389e-05
mvc-8742,CaNiBiP2O9,0.06272287002976107
mp-1078326,Ca2GePd2,0.0
mp-5850,ErSnPd2,0.0
mp-566602,LaMnO3,0.2948023259999992
mp-15046,Sb2(PSe3)3,0.0
mp-763882,Li2VCrP2(O4F)2,0.0012313929166776205
mp-776337,Zr2N2O,0.0058257270000012795
mp-650944,MnF4,4.282300000113537e-05
mp-1077725,SmRu2,0.012400763333333842
mp-1094027,TmTe,0.0
mp-558966,Ca5(ReO6)2,0.0
mp-561547,SrSiO3,0.03604973491667352
mp-1095708,Mg30CrSnO32,0.06751501492187463
mp-1096869,C,0.12822669278168952
mp-570753,Tl3PbBr5,0.008097610833329494
mp-570506,ZrI2,0.0
mp-865351,Tm2ZnRu,0.0
mvc-9118,Si2Sb15O28,0.17738042944444832
mp-775073,Li4Cr3Fe3(SnO8)2,0.018377722162697733
mp-626413,Yb(HO)3,0.10094362758928543
mp-680387,PrYSi2O7,0.4595514295454528
mp-1029915,Ca2SnN2,0.0
mp-560129,Na3La2(BO3)3,0.0
mp-1071818,TmCo2B2C,0.016278086527775848
mp-22115,TbSbRh,0.0
mp-777916,Li4Fe3Cu3(TeO8)2,0.0148276479464311
mp-775975,La2Nb2N2O5,0.0739338931152016
mp-764755,NaV4O10,0.0470893799999903
mvc-6096,MgSnAsO5,0.12867090117187452
mp-765767,VOF2,0.02743153859375536
mp-29617,V3Sb2,0.02612183300000126
mp-777964,Na2BiO3,0.033199448750032445
mp-975275,RbNa2Sb,0.013676435833332334
mp-27420,NaBiF6,0.0
mp-767179,Li3V2(CO3)4,0.08022466331845468
mvc-10107,Mn2P2O9,0.05386781240386096
mp-863696,Pm2MgSi,0.0
mvc-14096,Cu3(GeO3)4,0.08066459368421608
mvc-14116,Al4(CoO4)3,0.17074212250000276
mp-15796,LiHoSe2,0.0
mp-9319,Ba2PrPtO6,0.0
mp-769228,Cs5YO4,0.013640062500000385
mp-552200,Ba2TaBiO6,0.014282856999999538
mp-662572,Ta3In2Cl9,0.0
mp-1093683,ZnInPd2,1.7065654673611108
mp-504733,Ti3Fe3O,0.6443424350000004
mp-1094788,MgZn,0.13246258540000033
mp-7724,Li2UO4,0.18663755892857115
mp-540171,Li2Ni(PO3)4,0.014151426885971931
mp-29554,WBr5,0.011024017013888887
mp-738610,LiH20C8ClO4,0.1921414834558819
mp-980200,Zn3Rh,0.017208408749999737
mp-976047,Li3Hg,0.0009399949999999713
mp-1022615,Mg6ZnW,0.3001510007250001
mp-1096344,Na2InBi,1.176030284722222
mp-772331,Na2MnCSO7,0.03997687958333263
mp-10373,Cr3PdN,0.07702190999999914
mp-983604,Er3As,0.3748571649999999
mvc-11024,AlCuO2,0.0
mp-17998,Ca(RhO2)2,0.0
mvc-5944,Zn3Si4(WO7)2,0.15106353499999958
mp-760205,Ba16S16O59,0.01987225880494492
mp-1032029,SrMg6ZnO8,0.1915039840625008
mp-1037017,SrMg30CoO32,0.03854970492187526
mp-772667,MnH4(OF2)2,0.019422150183082455
mp-695967,Ag3P6H12N3O19,0.10831613768378556
mp-766239,Li7V5O12,0.016940633541659974
mvc-5445,Ca2YBiO5,0.16764375458333006
mp-1697,TbPt2,0.0
mp-12541,Ca4Hg9,0.028995794423076537
mp-1025364,Dy(TiGa2)2,0.0070836742857203205
mp-989513,SrWN3,0.003343723000000409
mp-567600,Sm(SiAg)2,0.0
mp-31933,Li2Mn3(P2O7)2,0.028203793749997708
mp-705626,Mn2CuO4,0.05022625711308848
mp-1093580,Li2YIn,1.9727507161538465
mp-775987,Ti3Fe2Ni(PO4)6,0.017747589288191534
mp-29488,Na2ZnO2,0.0
mp-1016622,Mg6NbMo,0.30083758625000057
mp-767167,LiCo2(PO4)2,0.08534279394232147
mp-37749,Na10Fe4O9,0.05646144688405653
mp-758316,La10Bi8O27,0.0
mp-559256,La4S3NCl3,0.0
mp-713,KAs,0.0
mp-1028384,Mg14TiNi,0.11344346281250005
mp-775824,Zr2N2O,0.006095221999999012
mp-776264,LiFeF4,0.003918203518527896
mvc-13600,AlBiSe4,0.2523163173763017
mvc-11653,CrSe2,0.0256575166666666
mp-772852,Na3Zn4P4H4NO16,0.005593072226560025
mp-754494,BaLaBr5,0.044623699821428886
mp-27512,Cr2NiS4,0.05571508065475772
mp-985579,AlFe2,0.10751899666666363
mp-5835,Ho(CoSi)2,0.0
mp-570451,Nb2Te3,0.035216801833335865
mp-767129,WOF4,0.056915825416663963
mp-850112,LiMn2(PO4)2,0.07324430557692453
mp-1080828,KCuF3,0.006175251999998466
mp-707543,H6C(N3O2)2,0.32231975528273793
mp-769204,Li7CuAs4ClO14,0.08237346175925353
mp-704102,MoSO6,0.004904998906249958
mp-1098959,Mg30VCO32,0.12917319958007756
mp-772279,Ti2V(PO4)3,0.0
mp-773963,Li6V3P8O29,0.020547213278999443
mp-19290,Mn2As2O7,0.0
mp-772212,LiNb5O8,0.08133381648809213
mp-1077925,Na5Sn2,0.004225970654761825
mp-774482,KLiTi2(PO5)2,0.0292570891145818
mp-559349,Sb2ClF17,0.0
mp-773752,Na3MnO3,0.014282596428571104
mp-767125,LiMn3(OF3)2,0.054538076041665384
mp-1094792,Mg3Zr,0.04478652999999967
mp-3632,YSF,0.0262620291666682
mp-7456,SnF2,0.00023447416666755322
mp-771683,Li2TiMn3O8,0.04997786902408219
mp-768292,Li2BiBO4,0.09018029531250173
mp-755368,Zr2N2O,0.058275255666666574
mp-771990,Li4Cu3WO8,0.1397518303125036
mp-1135,NbPd3,0.0019363816666668754
mp-1033337,BaHfMg6O8,0.5535013237499999
mp-1069204,NdCoSi3,0.0
mp-13946,Rb2ZrF6,0.0
mp-769600,LiV2S2(O4F3)2,0.05107663247367533
mp-979001,SmAs2Au,0.007971149999999483
mp-12108,VPt2,0.0
mp-1030,SbPt7,0.007161860312496771
mp-1028407,Mg14CrCo,0.1506953783593752
mp-29450,CuSe3I,0.0
mp-773310,V2CoO6,0.0
mp-973267,KTcO3,0.0
mp-755878,Cu6OF11,0.01542121512152672
mp-2951,CdGeO3,0.0013674918333377304
mp-772829,Ba6Li2Ti7(Sb3O14)3,0.06889251982007405
mp-1025312,Mn(NbS2)2,0.4232361776190485
mp-558804,CsGeB3O7,0.0
mvc-5806,MoO2,0.08804656124999788
mp-722571,ReH(CO)4,0.2728794797749998
mp-779834,Mn12O5F19,0.06264968906251056
mp-744811,NiH24C2S2(N3O7)2,0.03451121674538893
mp-1016618,BaMg6Sb,0.2448226420535717
mp-558430,BaB2F8,0.0
mvc-690,Te(WO4)2,0.09213606147727303
mp-850994,LiMn2(BO3)2,0.06825870499999631
mp-849942,Na4VO4,0.0
mp-4297,U(GePd)2,0.0
mp-21044,NdGeRh,0.0
mp-3142,Ca(NO3)2,0.0
mp-567554,Ce2(Al5Ru)3,0.0
mvc-6394,CrO2,0.1865717833333349
mp-850064,Mn4O7F,0.0598122907291776
mp-698702,CaSmMnSnO6,0.04709069099998597
mp-561249,Ba17Er16Zn8Pt4O57,0.0
mp-1079481,AlSBr3,0.3899810738703713
mp-10175,KCdF3,0.0256700004999999
mp-1074483,Mg4Si3,0.2360240844444457
mp-1087505,U(FeB3)2,0.0
mp-21911,PRu2,0.0
mp-1039944,NaCeMg30O32,0.05173537083096491
mp-570948,LiCaGaN2,0.0
mp-1080252,CeSe2,1.2449767312500004
mp-776650,Na5CoO4,0.008308121749996289
mp-1009016,LuAs,0.5022278150000004
mp-770856,Li2MnCrO4,0.014638460312520253
mp-35397,Bi2WO8,0.17651990750000035
mp-570939,CdI2,0.00018289466666665533
mp-771202,Li4Co5SnO12,0.042186037840905584
mp-768518,LaAlO3,0.00030895966666655283
mp-862563,Sc2BeTc,0.010202422500002584
mp-862704,ScZn2Pt,0.04891058864130482
mp-1093621,Ca2PAu,1.4765588816666666
mp-23314,Pr4Bi3,0.0
mp-540915,Eu3BrO4,0.019705172500000145
mp-1030466,TeMoWSe3,0.022606897500000226
mp-1026866,CsMg14Cu,0.2254844134375001
mp-567042,FeB2C6(O3F4)2,0.3109407314130408
mp-1076410,Sr2Ca2Mn(FeO4)3,0.04320471941665184
mp-1075362,Mg5Si6,0.2327593572727267
mp-1019898,LaPO4,0.020772172916675657
mp-12633,Mn5B2P,0.0
mp-706448,Mn14Al56Ge3,0.0
mp-19807,Co3(SnS)2,0.0
mp-1009533,PdC,1.4909429262499998
mp-916,DyPt2,0.0008425404166665372
mp-601881,CaAlH5,0.13274247892857186
mp-696006,Mo2P3O13,0.012901733194446765
mp-680671,Mg4Zn7,0.0
mp-1072802,CaZnSn,0.04326602833333304
mvc-16062,V4ZnO10,0.05540541316664793
mvc-7381,ZnW2O7,0.216119295500004
mp-1078231,Sr(GaRh)2,0.0
mp-504883,FeH4(ClO)2,0.0
mp-29371,Rb2GaSb2,0.0
mvc-1939,CaSbAs2SeO7,0.1983760828255221
mp-776625,Li3Ti2(PO4)3,0.06298820743809053
mp-35663,Sr(InTe2)2,0.07202848714285848
mp-686476,Al6Bi24Cl23,0.1224209084591159
mp-976582,HfSb3,0.3884289887500003
mp-1036271,Mg14MnCoO16,0.012298075156250476
mp-766853,LiMn2F7,0.0640299641666564
mp-762951,Li3V3P8O29,0.04765666793603796
mp-1007976,Cs,0.0041466499999999185
mp-765702,Mn6O7F5,0.07323032270832996
mp-4691,Ag2CO3,0.0
mvc-571,Sr2YMo2O7,0.3688250161458324
mp-4574,YbTaO4,0.0
mp-13915,LiNi2Sn,0.0
mp-697816,Li2Fe(PO4)2,0.08123324240384289
mp-1075715,Mg5Si9,0.2085733709920623
mp-20222,Sr2NbInO6,0.0
mp-1078815,NbSe4,0.02921340411111295
mp-755901,Sm3NbO7,0.018599581704538792
mp-771797,MnCoO4,0.0254975141666689
mp-555280,ZnS,0.0117128391666661
mp-540020,LiFe4(PO4)3,0.04705256000001157
mp-1031588,Mg6VCrO8,0.07641362999999934
mp-568560,TlBr,0.0
mp-27970,K2CdN12,0.04623679404800018
mp-707105,Li3B5(HO5)2,0.0
mp-861951,LiTaRh2,0.0
mp-571409,Cs2Li3Br5,0.010828660000000044
mvc-5427,Mg(CuO2)2,0.1026117667857136
mp-1094337,MgTi,0.25585131291666663
mp-510262,Cs3O,0.0
mp-760891,Cu3OF5,0.02190893524305526
mvc-6058,Mg(CuO2)2,0.08555667678571233
mp-7498,Ti5Te4,0.0
mp-673837,Ba8Bi4O17,0.01942247597701208
mvc-9332,PrZn(SnO3)2,0.17206017962500295
mp-572156,CuP4O11,0.0
mp-572456,YbGeBiO5,0.007223341093751223
mp-1095461,NdCo3,0.011489354955356744
mp-3693,HoBPd3,0.12084028381818256
mp-1030534,Te2MoWSeS,0.08000928000000053
mp-560144,K2RuBr5NO,0.0
mp-775648,Li2MnV4CuO12,0.07701649012500232
mp-19845,TiPbO3,0.04015710399999861
mp-1009878,ZrC,1.2214694950000011
mvc-9184,Mn3ZnO7,0.3115305307954568
mp-13473,Sm(MnSi)2,0.0
mp-29791,Nd4PdO7,0.006744990041665844
mp-1016353,SrMg6Sb,0.19861938946428648
mp-616672,Ga2Fe2S5,0.1602109638888889
mp-1009080,HoCd2,0.42725602666666695
mp-7657,K3SiTe3,0.0
mp-777197,Li2MnVP2(O4F)2,0.02287162390622033
mp-762824,Li2MnPO4F,0.04151994986111074
mp-510595,Er5CoSb2,0.0
mp-762473,TaCrO4,0.07334290999997428
mp-1069538,CsPbI3,0.03863080649999917
mp-636559,Cd(C2N3)2,0.13785400436181572
mp-763082,Mn3O5F,0.05344867847223167
mp-1021760,Mg6CdNi,0.10832178874999963
mp-850486,LiVP2O7,0.08776312409090625
mp-1018650,Ba2ClF3,0.060822065000003527
mvc-8343,CaCrNiP2O9,0.0059364912500106115
mp-561647,Cs2TeOF4,0.0
mp-776833,Li2Fe3SbO8,0.0023181242857175377
mp-1013564,Sr3BiAs,0.11712081074999325
mp-20855,Eu(Sb3Ru)4,0.0
mp-574235,Yb(NiGe)2,0.0
mp-984612,Be3Ru,0.0051338250000005905
mp-757276,Li3Ti2(PO4)3,0.08006559593809115
mp-565376,V6Fe4(CuO8)3,0.02275212499999668
mp-1020018,Li5B(SO4)4,0.008098486923075576
mp-534935,Sr3Pr10Al12Si18(N2O)18,0.03202798847938304
mp-861929,Pu2BiAu,0.0
mp-569902,GaSe3N2Cl5,0.1552030322732385
mp-18941,Co2SiO4,0.03524472249999898
mp-40830,NaSr3LaTi5O15,0.0069482543799956895
mp-1039548,CeMg2,0.08969830888888941
mp-764867,Li3MnFeCo(PO4)3,0.014993625535748125
mp-558910,Li2U3(PO5)4,0.0
mp-971914,SrSiPt,0.0
mp-1037175,Mg30CoNiO32,0.0007236069531240119