mpid,formula,e_hull
mp-7569,KAsF6,0.0
mp-778024,Fe6O11F,0.11705071079860475
mp-695434,Li7Zr3Nb(TeO6)4,0.015966112756409245
mvc-3791,Ti2Zn2O5,0.3494420569444401
mp-1097126,NbSiRu2,3.5465545138888888
mp-974667,Rb2H2C2O5,0.04436981363637038
mp-850254,Li11V6O5F19,0.07223834632452243
mp-769046,Si2Sn2O7,0.08655523249999764
mp-976939,Ho2OsPt,0.0
mp-10636,SrSb2,0.0
mp-571190,GaHg2SbCl4,0.0
mp-567574,DyAgGe,0.0
mp-1033845,Mg14BCO16,0.4280790653320317
mp-612175,Eu3(AsPd)4,0.0
mp-1094670,LiMg3,0.014203369999997715
mp-25522,FeGeO3,0.0
mp-557025,K2SeO4,0.0
mp-31851,Ca(Fe2O3)2,0.0196559352272736
mp-581229,Gd2Ge2O7,0.0
mp-19878,YbMnGe,0.060054006666666375
mp-28041,Pb9(Br5O2)2,0.003738325217391925
mp-15641,CaMgGe,0.0
mp-972103,U3C,0.5338920700000003
mp-764221,Cr2OF2,0.08079600200000225
mp-579163,LaMo2O5,0.15541389677083473
mp-756670,Eu2Pb2O7,0.0
mp-559209,NaCuAsO4,0.029249833392847258
mp-1095945,LaSnHg2,1.7814202775
mp-1022718,CsMg6Zn,0.27581679822500016
mp-1097145,MgTiCu2,2.242139718333333
mp-21283,Cs2PbO3,0.00015493833334012663
mp-865247,GaFeIr2,0.25546482000000026
mp-1097460,LiScAg2,1.7120677758333331
mp-753793,Ba2YF7,0.048472318499999986
mp-999393,NbCr3,0.5337979549999972
mp-1080433,YbNi,0.011667966249999662
mp-757242,Li5AuO4,0.0
mp-1068212,Fe2O3,0.8376896490000005
mvc-14312,VF5,0.05932096333333359
mp-1076171,La5Sm3Co7CuO24,0.10037334668749144
mp-1027350,TeMoWSeS2,0.07051461666666725
mp-865010,HfGaRu2,0.0
mp-14482,SrNb6O16,0.02664918206520639
mp-626241,Sr(H8O5)2,0.04670676388888762
mp-655580,CeCu4Sn,0.2929511594791672
mp-571454,LiAgC2,0.4896011187499987
mp-9771,UTi2O6,0.016433257222225
mp-672196,La4B2CI5,0.0
mp-3329,Tb(NiGe)2,0.0
mp-1066774,Rb3Os,1.4375260787500004
mvc-9045,LaZnFeAgO6,0.09865151066666657
mp-1073823,MgSi,0.2260406897222218
mvc-647,AlCu(WO4)2,0.0835672383333339
mp-20861,CrGe,0.09115301875000004
mp-3765,Sr(PO3)2,0.0
mp-776970,Li5SbS4,0.08585810250000138
mp-764793,Li2Mn4OF8,0.08766916816666727
mp-1079313,V3GeC,0.0
mp-776979,Li9(CoO4)2,0.020567896699556158
mp-530925,Fe6Ni9S20,0.028987822571422406
mp-771361,LiMn3(PO4)3,0.011131526842099504
mvc-4456,Y(SnO2)2,0.36009279499999725
mp-707784,AlH18(NO6)3,0.0
mp-680317,Cs2Bi8Se13,0.011099434782607888
mp-573727,Bi8SbAuBr9,0.0380429476973676
mp-1096620,Cd2PdPt,1.8298781362500005
mp-685906,Li7(Ga3Te5)8,0.018556531591550574
mp-26074,Bi2(PO4)3,0.06946963224264735
mp-557787,TlSbO3,0.00020241150002853203
mp-780874,KLi2Mn2O4,0.08747100342592072
mp-29696,K4Sb2O3,0.08493624236111241
mvc-15551,Mg2WN2,0.2085762207870374
mp-1038596,HfMg30CrO32,0.09244376097656293
mp-19347,CaV3O7,0.0002338822727274703
mp-758243,TiNb2O7,0.02238130041669173
mp-1072033,DyCu4Ag,0.0
mp-566443,Sn5(W4O11)2,0.1702352511428522
mp-779662,Zr5Sn3O,0.003606851055554472
mp-1031971,Mg6CdCoO8,0.12280012781249995
mp-568153,Al22Mo5,0.00257262541666492
mp-851017,Na2CoO3,0.03175554473039721
mp-571592,CdI2,0.0004706798055555961
mp-865414,Lu2ZnPt,0.0
mp-1095305,NdSbAu,0.0
mp-562575,KMo(PO4)2,0.0
mp-568953,LuAg4,0.0
mp-13174,PtN,0.9363837938099993
mvc-6679,ZnCr2CuO7,0.10631615364583437
mp-530121,Mg(GaO2)2,0.00574391500001159
mp-3956,Sr3UO6,0.0
mp-1094988,MgSn3,0.06910928187500033
mp-3821,K2PtF6,0.0
mp-9646,La(PO3)3,0.0
mp-756086,Li5BiS4,0.09029313199999756
mp-17177,Nb2ZnO6,0.0
mp-865380,Tm2PdPt,0.00911808624999999
mp-1008931,ErSb,0.3314139049999998
mp-680181,Bi2Pb2S5,0.018055395138889097
mvc-7566,Ta2CoO7,0.30046735787499834
mp-1079815,PrSi2Rh,0.0
mp-771395,Li3Co4(BO3)4,0.049709671557979895
mp-1029828,RbCrN2,0.0
mp-541037,CsCuO,0.0
mp-1035413,Mg14VCuO16,0.06539955499999017
mp-763181,LiCrCo3O8,0.038303438285256064
mp-582081,Cs3NdCl6,0.0
mp-776630,V2O3,0.06600277225000184
mp-683950,Ca10Pr4Cu24O41,0.044440787310119134
mp-644758,Fe2Mo4N,0.051216012321427584
mp-769973,Li3CrBO5,0.10252370930554824
mp-1077213,KAuSe,0.0006833400000001433
mp-560216,Cs2GeP4O13,0.0
mp-867211,LiCa2In,0.0
mp-24241,Rb3B12H12I,0.005831006428572039
mp-30610,Er2Pt,0.0
mp-34913,Nd5ErS8,0.052852638511901695
mp-3701,Sc(Al2Fe)4,0.0
mp-1003485,Mg2Mn3O6,0.10904444181819084
mp-686232,Na7Al11Si13(AgO12)4,0.16289890722892242
mp-762672,Li2Mn2NiO6,0.07257382003251234
mp-775572,Na3Li5Mn5O9,0.06119061191287045
mp-774302,TiMn3O8,0.09019680041667044
mp-765068,LiVFeP2(HO5)2,0.04343099479411894
mp-984762,CsY,0.6977013637499994
mp-697817,Na2Sr6ZnFe6F34,0.008342080510209904
mp-865918,Yb2CdSn,0.0
mp-776487,Li2V5CuO12,0.09114273441666933
mp-868358,Li4CoNi3O8,0.0
mp-1023933,WSe2,0.0005652349999998307
mp-779867,Li8Mn7Fe(BO3)8,0.005574935659719671
mp-776408,YNb2NO5,0.07173361527777901
mp-744631,V2PH10C2N2O8F,0.14965839199175954
mp-762307,Y7HoO12,8.997369736718497e-05
mp-1078679,GdFeAsO,0.17204906833333133
mp-680579,ZnC2(SN)2,0.1463185676618366
mp-28647,AsBr5F6,0.0047214237499968465
mp-680246,Cs4Zr3S14,0.0
mp-7505,K2P2Pd,0.0
mp-545999,AgSbO3,0.0
mp-510521,Y5Ga3,0.020317325312499968
mp-16135,Sm3NbS3O4,0.001504335757575248
mp-555345,CrCuS2,0.2168086156249931
mp-5241,DyPS4,0.0
mp-699296,Li3Mn3O8,0.0446486117410716
mp-1096800,LaScO3,0.2042740509999988
mp-999053,Ti2GaNi,0.1914988397916666
mvc-8393,Fe4(CuO4)3,0.06878800253289707
mp-676232,KH5O3,0.0057282861111112035
mp-505158,CsHoS2,0.0006645700000005308
mp-766345,Y5O4F7,0.00033651578124604964
mp-1028338,Mg14GaNi,0.06243041031249996
mp-764779,Ni6OF11,0.037465886365740886
mp-554376,Y4TiSi2(O3F2)3,0.0
mp-989586,SrTcN3,0.01866476950000262
mp-699660,KHo2Cu(MoO4)4,0.00973920347222368
mp-1030861,Mg6SiCO8,0.6734360349999982
mp-505012,Fe4As5O13,0.0
mp-851000,Li9Mn7Cr12O48,0.0500343981085436
mvc-10049,MgV2(PO4)2,0.06947014410256358
mp-976030,PrHoMg2,0.003186061250000094
mp-1016900,CaOsO3,0.2533286281999993
mp-996975,CuAgO2,0.0
mvc-5982,Mg(WO2)2,0.42248302714285657
mvc-2663,Mg2Ta2CoO8,0.018166548205128308
mp-9978,ErSe2,0.039297603984373985
mp-556598,Na2BeF4,0.0031777517857145554
mp-10434,K2UTe3,0.0
mp-16641,YbSn2Pd,0.0
mp-674355,Co(NiS2)2,0.0
mp-1021896,Mg6NiSn,0.1216015899999996
mp-25,N2,8.881784197001252e-16
mp-2567,V3Si,0.0
mvc-6872,Ca(FeO2)2,0.099897813928572
mp-7610,Li2CaSiO4,0.0
mp-673017,CuPO4,0.12016418166666565
mp-977443,ZrGeRu2,0.0
mp-2091,V3B2,0.0
mp-24423,SrHBr,0.0
mp-780337,LiCr4(PO4)3,0.061451591208337326
mp-556576,ZnS,0.01294218812499981
mp-16493,YAl2Co,0.0
mp-1093926,BeGaPt2,2.108641366124998
mp-866621,Ca3Sn4S11,0.15106988895833062
mp-3751,AlTlF4,0.0
mp-684991,NaCaScZn(SiO3)4,0.02115806070833326
mp-1016332,SrMg6Ga,0.1302754940625004
mp-653429,Mn7FeCl3O10,0.0
mp-561382,NbBi4BrO8,0.0
mp-571228,Rb5Sn(PSe5)3,0.0
mp-555363,Na2Cd(SiO3)2,0.02025531409091119
mp-1097442,Li2AgAs,1.2711046571874998
mp-7949,Rb2GeF6,0.009514161111112251
mp-769111,Sc3Bi3O11,0.2400754704411767
mp-1026916,MoSeS,0.013252072500000269
mp-4174,HoNiSb,0.0
mp-1080694,Os,0.2045680475000005
mp-15349,Li2GeO3,0.0
mvc-2039,Ba2CaCuSn2F14,0.13570089324999926
mp-19961,CeIn5Co,0.0
mp-771617,Li7Fe5O12,0.013714019374990729
mp-772460,Li6V3P8O29,0.027028929474652408
mp-22874,PBr5,0.0
mp-12496,CsTmCdTe3,0.0
mp-763979,Li4Ti3Mn2Nb3O16,0.0700173373660693
mvc-10513,CaCr4O9,0.24870234142855985
mp-22412,Ba(MnGe)2,0.09031755183333344
mp-1011374,CeSe2,0.2858659545833344
mp-865923,Yb2Ni12As7,0.0
mp-977553,Yb2PtAu,0.0
mp-540553,Te7(OF5)6,0.006317052378435939
mp-974822,Rb3P,0.11127822958333368
mp-541852,Co21(ReB3)2,0.0
mp-22849,BiI3,0.0
mp-770239,Ba2Ta2O7,0.0
mp-25651,PWO4F,0.0
mp-782702,Ni5O6,0.03645888954545562
mp-1033940,Mg14NbCrO16,0.13818234511160374
mp-567241,Pr3(AgSn)4,0.35704512389610343
mp-763715,FeOF,0.05986795166666601
mp-775802,Zr2N2O,0.003133948749999505
mp-21255,FeGe,0.028743427916666963
mp-568251,Ni6Se5,0.01584718465909063
mp-643259,Li4H3ClO3,0.0
mp-542129,CsAlBP2HO9,0.0
mp-568192,RbMoIO6,0.0
mp-1026666,NaMg14W,0.1861166753125003
mp-1952,Ba7Al13,0.021435361399998243
mp-721707,H6C3N4O3,0.007534155416666798
mp-975640,Pr3(CuSn)4,0.0
mp-600785,Tb(MnSn)6,0.012205182179487295
mp-1098457,Mg30NbSiO32,0.1311991119510676
mp-10502,BaCe2MnS5,0.0
mp-997585,La8Al7GaO24,0.01884905038393292
mp-1002210,EuS,0.3388958550000005
mp-775803,Ti2N2O,0.05932769276200034
mp-764211,LiVOF4,0.01594556223214738
mp-774089,Li5Nb2V5O12,0.0840628785069466
mp-705421,Li4Ni3P4O15,0.04117632865385179
mp-763720,Li3V2P2O8F3,0.05998987222222319
mvc-12007,Y2(CuS2)3,0.19621800075757712
mp-3136,NaNbO3,0.04078766100000841
mp-23474,AgBi3S5,0.0
mp-705579,Mg(FeO2)2,0.1040193416666666
mp-2424,LaZn5,0.0
mp-573066,CsC2S2N(O2F3)2,0.1791676410834926
mp-768058,Na2MnPCO7,0.010530843333333985
mp-25950,SbP2O7,0.038240783125012
mp-777087,Li4Nb2V3Ni3O16,0.03224757119047705
mp-777760,TbCeO4,0.07991029541666528
mvc-7604,CaTa2CoO7,0.12155822852272813
mp-18220,LiAlSiO4,0.0
mp-1028887,TeW2Se2S,0.0502620764583348
mp-676491,Ca3Yb2Zr3Ti8O28,0.3631140973295484
mp-1094862,MgZn,0.04763544290000032
mp-763308,V6O5F19,0.025830866083319748
mp-1077866,BaZnBO3F,0.020454955238093042
mp-35651,La2USe4,0.050916084285706376
mp-9236,U2Si4Mo3,0.0
mp-767562,Na2LuPCO7,0.01419923541666801
mp-1069160,U2RuC2,0.0
mp-1033614,RbMg6CrO8,0.40667934000000017
mp-861062,LiMnPO4,0.04302401833333391
mp-9439,YbCuSb,0.0014281616666664831
mp-775538,Li3Mn5FeO12,0.0
mp-761820,LiFeSi3O8,0.0413212446153679
mp-541365,LiEuH3,0.0
mp-14169,Li4UF8,0.00034361057692233743
mp-705380,LiMo2P3O13,0.05147392355260205
mp-764764,Li7Mn5O12,0.0256801358333334
mp-8482,LiYbGe,0.040726560537035716
mp-625211,LiH3O2,0.00048321083333391357
mp-18648,Zr2Ni12P7,0.0
mp-188,AlPt3,0.011726620000000132
mp-864653,HoMgAu2,0.0
mp-23083,KAs4BrO6,0.0
mp-769442,Li4Ti4MnCr4O18,0.08452575308643873
mp-759694,Mg2Ti7O15,0.0003965829861058978
mp-6695,BaCdP2O7,0.0
mp-557261,TbCu(MoO4)2,0.012894520937502207
mp-1069,HfSi2,0.0
mp-21239,FePb2(CN)6,0.1297414995079995
mp-758311,Li2CuSiO4,0.05892823968750172
mp-29300,Ga2CuCl8,0.0
mp-3552,Li2Si2O5,0.0058138949999984035
mvc-9446,Ba2Bi2F11,0.10315202489583086
mp-704991,Mn3(PO4)4,0.11771072103260848
mp-1096817,Al2ZnS4,0.11397474142857167
mp-720739,ZnP2H6O5,0.07731690272321501
mp-20700,Gd(SiIr)2,0.0
mp-561299,As2Pb4S6ICl,0.005439948035714792
mp-722467,CdH18Se4(N2O7)2,0.1167122377022567
mp-31728,LiCrPO4,0.0237776979166684
mvc-300,Sr2AlCu2SnO7,0.18391582259615447
mp-567928,CsBi3Se5,0.0
mp-767999,Ti3Mn2Co3O16,0.1036417160416736
mp-761692,Ba4Fe4O11,0.0
mp-12896,NdAl4Co,0.0
mp-1080577,HoSn3,0.0829438016666666
mp-631694,InCoSi2,0.9024257574999979
mp-1096595,Sr2LiZn,1.26773098
mp-27215,CrI2,0.0
mp-7621,KTcO4,0.0
mp-705882,LiNi2P4H3O14,0.0013187639583334132
mp-1096092,LiY2Hg,2.2499240391666664
mp-763188,Mn12O5F19,0.06432876711806568
mp-767679,Li8TiMn3O12,0.08755944875000042
mp-17013,Ta5Ge3,0.08794561562499936
mp-1080312,CeSe2,0.033227961249999716
mp-1077053,CsMnBi,0.2397248504166676
mp-12054,Cr2B3,0.027520527000000072
mvc-12500,Ti2ZnO4,0.2888089017857176
mp-771526,Li3FeSiBO7,0.07129700072115241
mp-1097556,ZrBeRh2,2.9701296700000004
mp-1017230,Mg6BiB,0.2736302643750004
mp-647134,SrCr2O4,3.471928571485705e-05
mp-1097065,Li2HfN2,0.0
mp-568565,CrAs,0.013904151250000218
mp-774407,Hg2W2O7,0.00727794068181975
mp-580999,Ga2NiCl8,0.00179199181818257
mp-640922,CeInPt,0.0
mvc-14381,MgMn2O4,0.0
mp-864762,LiMg2Zn,0.0
mp-779232,Li32Mn3Cr13O48,0.01720092937500084
mp-558844,SNClO,0.2742808143633342
mp-1027580,MoSeS,0.01347531166666638
mp-779752,Na5V2P(CO4)4,0.04968193185267733
mp-1030775,Te2Mo2SeS,0.05659387999999942
mp-771576,LiMn2(PO4)2,0.024106301602564884
mp-1096471,YAg2Hg,1.6185141237499996
mp-863672,ErMgCd2,0.0
mp-1080730,Sr2ZrMnO6,0.005274817499998363
mp-866289,Ac2ZnSi,0.0
mp-865998,HfGaIr2,0.010504851145832106
mp-777706,Li10Mn2Fe3Co3O16,0.07587218499999883
mp-765044,Li14V9(P2O7)8,0.05313542900658064
mp-1024042,La4Al6O15,0.07068208040000101
mp-20235,CaMnGe,0.10673014833333117
mp-10149,InSb,0.1478751599999999
mp-29484,K4HgAs2,0.0
mp-861942,Ag2GePbS4,3.3284531250288296e-05
mvc-9694,CaBi2P2O9,0.05090500982142565
mp-1078659,CaRhO3,0.0
mp-7767,RbAgF3,0.0
mp-761759,SbOF3,0.0834576452000011
mp-771206,Li4FeCo5O12,0.06898890500001897
mp-554111,Ti3Tl3(PO4)5,0.0
mp-29575,Cs3Fe2Cl9,0.02650583250000116
mp-19048,BaWO4,0.0
mp-565920,KMnF3,0.0013655349999970312
mp-764200,NaFe5O8,0.017742854285713427
mp-1099702,Sr2Ca6TiMn7O24,0.08985602292856497
mp-758101,Li4Cu3F10,0.08813289852941075
mp-7283,LaB4,0.0
mp-763202,Li4CoO4,0.09006779992592939
mp-773740,Fe6O5F7,0.0943014461111149
mp-1026693,SrMg14Si,0.14918547593749998
mp-371,La3Tl,0.0
mp-976872,NaNi3,0.5250600412499997
mp-18664,K4Ta2S11,0.0
mvc-13497,AlCuF5,0.056925517857142616
mvc-10190,MgMn2O4,0.020375906428584226
mp-554849,Ta4Mn11O21,0.014507708611112946
mp-1079799,BaMnBi2,0.1815467331249998
mp-505418,CsDyI3,0.09646650538888846
mp-558408,Nb4Te9I4O,0.006665367587716632
mp-625541,Sn3(HO2)2,0.014816677222222909
mp-4817,CeAl5Ni2,0.0
mp-691133,CrHO2,0.0010881018750010798
mp-558,YMn2,0.1588272841666658
mp-769738,Li3Al2VO6,0.06533205666666664
mp-4583,NbCo2Sn,0.12741997000000094
mp-1099301,KMg6Ti,0.3378383691666669
mp-680202,Ag2SnO3,0.010496004374999757
mp-646182,Mg5V2(MoO8)2,0.00350192806666616
mp-10428,Cu8SiSe6,0.05367103899999925
mvc-2075,Mg2Sn9O13,0.11007970833332514
mp-991740,EuGe3Pt,0.050904258000000084
mp-570405,TiHg6P4Cl7,0.019395921395502842
mp-23777,H8C3SN(OF)3,0.2449509313627818
mp-706272,Sr3FeN3,0.0
mp-776774,Li3FeF5,0.10008744805555556
mp-771854,Li4Cr5Co3O16,0.0937431450595234
mp-859874,Mg2PbO4,0.09385406714285692
mp-2044,Zr5Al3,0.06060692974999692
mp-1026843,LiMg14Si,0.04645290190624984
mp-27544,Cs3Bi2Br9,0.0
mp-744027,Na3CrH10C6O17,0.04798640047297287
mp-605028,Te2Pd3Pb2,0.0
mp-754177,CaGd2O4,0.0916444349999992
mp-1097494,MgPd2Pb,1.8003200484375004
mp-766103,Li7Zr3Nb(TeO6)4,0.017176752371794283
mp-11191,CrSi2,0.011405798888890928
mp-19019,NiMoO4,0.010392905416667377
mp-600004,SiO2,0.011677265833332841
mp-743889,NaCo2HSe2O7,0.0
mp-28514,Ba(BrO3)2,0.005392954999999589
mp-559212,RbReSO3,0.07040801645833472
mp-29167,Sr(NiP)2,0.0
mp-865111,NaSmAu2,0.0
mp-2997,ThB2C,0.0
mp-32342,Ba3NiO4,0.017620262499999484
mp-979956,Yb3Mg,0.04889625843750034
mp-1029922,RbRuN2,0.2345604772916676
mp-1020058,Mg(NO3)2,0.0
mp-23984,GaH18C3(N3F2)3,0.0
mp-996969,AgBiO2,0.002845174749999124
mp-768611,Ba3(YI6)2,0.0927384552205872
mvc-9286,CaPr(BiO3)2,0.04775521191666865
mvc-14203,Ca3Sb2O7,0.10042747224999893
mp-22041,HoGeRu,0.0
mp-773167,Mn3CoO8,0.05087436999999806
mp-9145,Rb2SnSe3,0.0
mp-603276,NaSr7Cu8(SF)8,0.006974702382812836
mp-1098674,CaMg30CoO32,0.026221113671875074
mp-1094782,MgZn,0.0991008829000002
mp-20888,TmGeRu,0.0
mp-778492,Na6Ti2O7,0.0789998491111108
mp-1039033,CaMg3,0.10582034249999883
mp-699647,Mn2SnC9ClO9,0.6053007317613623
mp-10922,Mg2Co12P7,0.0
mp-1029078,Te2MoW3(Se2S)2,0.06356235666666787
mp-1019552,Ca16(SiN2)17,0.02600651447994551
mp-646007,Cs2Tb6Te7N2,0.00020946823529399689
mp-978545,Sm2AgHg,0.0
mp-1079416,ZrTi(PbO3)2,0.03582130050000032
mp-735510,CrH10C2(NO4)2,0.31076043654159324
mp-777470,LiFeF3,0.06644435766666312
mp-760637,LiBiP2O7,0.054527609166668434
mp-773263,MnFe(PO4)2,0.012871955416654757
mvc-4413,CaSn2O5,0.193646428124997
mp-676851,KNO3,0.011013571500001262
mp-1030723,Te2Mo3W(SeS2)2,0.05367374250000001
mp-1018708,GdTlZn,0.012721256666667458
mp-5112,Pr(CoSi)2,0.0
mvc-5354,Mg(CoO2)2,0.062286695238094936
mp-1096463,Sc2CdAu,2.2952353375
mp-774238,Li4Nb(FeO4)3,0.13003093431250168
mvc-7840,CrBiO5,0.13889250985118906
mp-1074333,Mg4Si3,0.14799624658730304
mp-1093547,Ba2AgHg,1.3473158462500003
mp-754052,Li3(Fe2S3)2,0.1956749792307697
mp-540461,LiV(PO3)4,0.0344104456944434
mp-1008865,NdCd2,0.0
mp-863659,LiScHg2,0.0011331299999999267
mp-20264,Tb(FeGe)2,0.0
mp-864895,Be2NiRh,0.0
mp-690727,H2PbO2,0.17194913499999842
mp-1033949,Mg14NbCrO16,0.13473576323660374
mp-1077784,NaMnBi,0.2205545916666667
mp-774001,Li2Mn3CuO8,0.008815084446434973
mp-1028074,Mg14MnSb,0.07787949843750043
mp-1016327,Mg7Bi,0.035214912500000084
mp-672325,TbIn2Ni,0.0
mp-15503,Ba4TiAs4,0.0
mp-982370,Na,0.0030165524999998805
mp-1079868,CeAlCu,0.0
mp-1026891,SrMg14Cu,0.10060439062499983
mp-1094239,MgSn2,0.061499785000000085
mp-769671,LiVPCO7,0.048853077500009334
mp-743949,Na3VSi4(HO6)2,0.003536454090937724
mp-776081,K2O,0.08806114333333293
mp-1018065,DyFeC2,0.0
mp-976182,PrErTl2,0.003654884999999553
mp-16088,Tb3Co29(Si2B5)2,0.0
mp-29477,C2S7Cl6,0.09155191722618916
mp-1017519,IrC,1.67487483625
mp-778542,Li32Ti3Cr13O48,0.017977831145848278
mp-24905,CrClO,0.0
mp-1098999,Mg14AlSiO16,0.191043150527344
mp-12076,Tm(FeB)2,0.0
mp-766943,MnCd4O5,0.012324191500000305
mp-1018942,PrTlCd,0.005621569999999298
mp-1063522,CePd2,0.29359055666666745
mp-1035582,KMg14BO16,0.2938933678125011
mp-9745,Ba3NaRuO6,0.0
mp-10226,NaYS2,0.0
mp-568443,Al2VCl8,0.0
mvc-8888,TaTiZn(PO4)3,0.10229915498842597
mp-775767,AgAsO3,0.012079916750000308
mp-1080784,LiHoSn2,0.11341126052197747
mvc-1072,CaCuP2O7,0.05480281500000128
mp-3732,Ti2CS,0.0
mp-561351,SiO2,0.012214474444443013
mp-27240,UCl5,0.0007639366666758463
mp-699412,B3H52C16(NO)12,0.2810928916881581
mp-759419,LiSb(PO3)4,0.057391712222205626
mp-1094873,Ce2Mg,0.12044443722222288
mp-25098,Ba2Ni(NO2)6,1.8109703674301585
mp-2739,TeO2,0.011017738749992569
mp-773181,Cr3WO8,0.09500586583332372
mp-766941,Li4VF8,0.060131166538452525
mp-975461,Hg3Sb,0.15667910625000014
mp-865299,TmZnRh2,0.0
mp-30352,NaAg2,0.0
mp-1068664,ThCoSi3,0.0
mp-684504,Li3Bi2(PO4)3,0.03564550225000307
mp-861622,LiMnPO4,0.08578159250000006
mvc-7248,BaCuReO5,0.3861414050624985
mp-3481,KSnAs,0.0
mp-1026481,Mg14CrSb,0.09023212593749984
mp-21073,HoGeIr,0.0
mp-5488,LiInO2,0.0
mp-772250,Li8FeO6,0.028921456999998263
mp-720721,SiH18C4N8(O2F3)2,0.02659323193767449
mp-1022507,KMg6Fe,0.3722355975
mp-720515,HN,0.14174916170666665
mp-568011,K3P5RuSe10,0.0
mvc-7654,TiZnAs2O7,0.06383394375000062
mvc-2998,SrVZn(PO4)2,0.03654417014806821
mp-1098906,Mg30FeCoO32,0.004430394414062454
mp-31256,U(SbO3)2,0.004866428611114415
mp-581203,Mn2P2C12S(O2F3)4,0.6196134617133193
mp-29718,AgW3Br7,0.0
mp-707973,CuH22C8N10O,0.09429920191047536
mp-1028004,SrMg14Zn,0.07302556379999993
mp-556281,Sc(PO3)3,0.01005632339743201
mp-767196,Li3Mn5OF11,0.05948704449999909
mp-4259,Ca(CoGe)2,0.0
mvc-3737,MgMnF5,0.03541086238094948
mp-1096271,LiSc2In,2.410844792884612
mp-565665,Ba2V2ZnO8,0.0025267850000005865
mvc-9724,Zn(SbO2)2,0.14241248083333247
mp-1038543,Mg30CrBO32,0.12199248136718932
mp-41331,CaGa2Cu3(SbO6)2,0.08621283624999876
mp-557540,Rb2AgSbS4,0.0
mp-12801,CoCu2Sn,0.2472096308333338
mp-752878,LiAg2F4,0.03150204892857067
mp-541459,KSnPO5,0.0
mp-7783,La(BC)2,0.12713672000000376
mp-560104,LiTaGeO5,0.0
mp-28801,La5Ti4O15,0.06555987986979163
mp-753816,Na6MgO4,0.010950832272727421
mp-780141,Li6Mn5O12,0.04247469035326112
mp-19796,Ba2Nb5O9,0.0
mp-680502,La10Ga5Br4,0.0
mp-774754,KRe4O8F13,0.0017244210576938812
mp-1079193,TiCuNi2,0.01664006125000039
mp-1094335,Sr2Mg,0.13031059791666674
mp-991544,VRu,0.003831514999999897
mp-1069288,MnGa4,0.0
mp-773694,Li2Si12(NiO6)5,0.0635615863265393
mp-764823,Li5Mn6O16,0.0819006750848752
mp-1079998,Co(IN3)2,2.238189394179998
mp-1074613,Mg2Si,0.22886759866666884
mp-549333,NdBi2IO4,0.0
mp-510083,Tb2Ti3Si4,0.0
mp-771825,Er2TiO5,0.0376677012499993
mp-651154,Te4As2S5(OF6)2,0.10954197413999987
mp-1099792,Ba3Sr5Ti8O20,0.07787453928242982
mp-25668,Mo2P2O11,0.002407594999997542
mp-556207,ZnS,0.0008126602499998192
mp-707876,Ca3Be2P4(HO2)10,0.011390478653845905
mp-774288,Li2V3CrO8,0.006696120907703218
mvc-9528,Al4Fe13Si2(SbO14)2,0.0008717125510102619
mp-28753,NdI2,0.0
mp-24720,PuH2,0.0
mp-1025489,SmSi,0.0
mp-26531,LiCu2P3O10,0.02983737757814353
mp-1039121,MgCd,0.5532916325000004
mp-2263,ScIr2,0.0048585933333349365
mp-554739,C3ICl(OF3)2,0.1968541597115374
mp-1034202,HfMg14SnO16,0.30588799085937524
mp-15812,Mn3Mo3C,0.0
mp-1029616,Ba(TaN2)2,0.0
mp-21903,KEuGeS4,0.019914128459819658
mp-982869,PmYAl2,0.01841473562499996
mp-850135,Li3V2Cr2O8,0.054566297062496716
mp-774255,K3CrPCO7,0.011137223381412651
mp-770565,TiCr(PO4)2,0.009114746006943621
mp-775260,Li6CoCu3(PO4)4,0.0744265287083401
mp-1026411,Mg14SbC,0.31317554609375
mp-860971,ErH(SO4)2,0.014838680000003103
mp-1087231,Yb2Ge6Pd,0.08175506305555569
mp-614311,CsCSN,0.0
mp-677613,Ba3Si3N5ClO,0.040397845192306825
mp-30625,Dy2Tl,0.0
mp-561777,SmTiO3,0.049408035749998185
mp-698585,Sr24Ni19O54,0.005466939690720096
mp-6440,CaTiSiO5,0.0001450028124985181
mp-20391,B2Mo2Ir,0.037097663999999135