mpid,formula,e_hull
mp-23256,BCl,0.09931748137152764
mp-634859,CaO2,0.007227346250000544
mp-1094342,MgTi,0.1587450304166662
mp-604411,Ba2Ho2Co4O11,0.11785268671052053
mp-16780,KBaNbS4,0.0
mp-706642,H3ClO5,0.11193902194444494
mp-19900,La(GeRu)2,0.0
mp-566668,Rb2Cr2Cd(H2O5)2,0.0
mp-703521,Na5P3(H3O4)4,0.019558966458332886
mp-1094177,La2Mg,0.024238299166666533
mp-1029474,Ca7SiN6,0.0
mp-7561,SrPd3O4,0.0
mp-30097,Bi2Te7Cl8,0.0
mp-908025,Fe,0.15241603999999853
mp-850975,Na4Ni2C4SO16,0.044794318379628884
mp-558967,K3Ta2S11,0.0036727750000000725
mp-29311,S3N2Cl,0.07521762189500603
mp-972899,Sc2GaIr,0.030108013749999607
mp-763028,Li4FeCo9O20,0.030860183658091067
mp-534793,KCa5Mg5Al(SiO3)12,0.02614866212499933
mp-11387,HfGa3,0.0
mp-721415,CuH12N2(Cl2O)2,0.017123429761908504
mp-1098892,Mg30CoSiO32,0.09410572042968823
mp-11462,KHg,0.0
mp-770907,Gd2W2O9,0.0535942705768786
mp-861547,Li4MnCo3O8,0.09151976374999916
mp-30626,DyZn3,0.0
mp-694965,Li3(NiO2)8,0.04833636058642199
mp-1017157,HfMg6Sb,0.13398640468750012
mp-19615,Li3V2(PO4)3,0.0
mp-676712,ReSeCl,0.0
mp-720402,B10H13CSN,0.17359347449786267
mvc-6074,Ca(SnO2)2,0.2807513000000057
mp-554016,K4Ti2PO4F9,0.0
mp-779065,Li2Mn2CoO6,0.0497754097564993
mp-868012,Li4Nb3Fe3(SbO8)2,0.06431537303567314
mp-542085,Sr2GeO4,0.0012221714285720608
mp-556529,Cs2MnBi2S5,0.0
mp-1095502,TaCoGe,0.0
mp-767986,Li4V2Cr3Co3O16,0.09209738743855933
mp-1022985,Mg6MnNi,0.18415362125000007
mp-30045,CoGe2,0.0
mp-3932,Ca3Si2O7,0.008780881249993655
mp-30770,LuMn5,0.0962131483333355
mp-1096312,MgCuPt2,2.495614767500001
mp-780936,Li5V6O5F19,0.0576468201428586
mvc-15649,MgSnO3,0.07263828750000112
mp-1078895,Mn3Pd5,0.0
mp-1035958,YMg14TiO16,0.14868335249999998
mp-765786,Li2CoNiO4,0.005295406041657458
mp-1018155,MnSn,0.8184071575000003
mp-989195,ScClO,0.07270107819444416
mp-767410,Bi6P2O15,0.06908352978260622
mp-775922,SrNb3NO7,0.08065076979166541
mp-764150,Li3V3P8O29,0.0439693339825622
mp-568077,TaFe2,0.0
mp-625467,Eu(HO)3,0.02507938339285776
mp-758225,Bi10(Pb2O7)3,0.01888573668918969
mp-30530,TlClO4,0.0
mp-559502,Ba3NaNd3(Si3O10)2,0.0
mp-1407,Rh3Se8,0.0
mp-672299,YInNi,0.0
mp-775220,V(GeO3)2,0.05136304500009015
mp-745155,Na2Ca6Mg7Fe(SiO3)16,0.0229330691484364
mp-542336,BaTm2NiO5,0.0
mp-1100737,Li9Mn2Co5O16,0.06971409468746348
mp-644802,C17F5,0.29730460855113616
mp-865107,NaMgPb2,0.0
mp-607721,NdZnRh,0.0
mp-680711,Ca4Te5O14,0.0017030041521763903
mp-1002222,TlN,0.9581917363100008
mp-1023160,SrCaMg6,0.14882335986607087
mp-765391,LiNiPO4,0.05831736857143266
mp-774371,Li4Mn3F10,0.08105446705882269
mp-626973,Ba(HO)2,0.0
mp-18573,La3ZnNi3,0.0017630028571442578
mp-1025172,Ho(TiGa2)2,0.0015823014285700765
mp-853224,Ti7(WO5)6,0.07449719462879932
mvc-6988,ZnNiP2O7,0.020834484034064186
mp-30190,UMo13P9,0.004150040326088345
mp-10789,Yb2Ge6Pd,0.0
mp-8727,Ba4PtO6,0.0
mp-7936,LiNbS2,0.0
mp-21346,U3Si2,0.13831947687499913
mp-1018023,Mn3Sn,0.232681973750001
mvc-15852,MgAgF5,0.09873860642857356
mp-1195,Ba3P14,0.0
mp-1892,Ba2N,0.0
mp-20414,U7Te12,0.007987027105268218
mp-558854,NbFeF6,0.10935886810417106
mp-7531,Ca4Al6O13,0.013355966811594122
mp-1031043,RbLiMg6O7,0.5351398805833334
mp-767317,Li4Mn(OF)2,0.09568369314814797
mp-21628,Mn6Ni16As7,0.0015583309067679352
mp-1095396,NaGe2Pd3,0.0
mp-20422,KMnP,0.0
mp-24810,NaBH4,0.02445664708333606
mvc-8386,CaV(GeO3)2,0.03770616847083375
mp-620190,V2P4S13,0.009606559342104859
mp-866521,Ca2SnS4,0.13662988142857024
mp-770121,Li8TiMn3(PO4)6,0.043666803392859777
mp-183,CeCd,0.0749141450000006
mp-753345,Ba2CaI6,0.062184394722222265
mp-867157,SmCdHg2,0.0
mp-683941,Nb14S5,0.0
mp-1028329,Mg14NiBi,0.07124245625000003
mp-581681,Ca21(Mn2Sb9)2,0.015142128575573288
mp-690111,Co5(Bi2O5)4,0.1607856168182087
mvc-9180,CaMn3O7,0.312824852613641
mp-33737,Mn3Cu3O8,0.01890544852677767
mp-20279,NbInSe2,0.0
mp-542660,Fe7(AsO4)6,0.0
mp-978845,Sm3Sc,0.039116405625000183
mvc-11583,CoO2,0.06078861916666424
mvc-12280,Ba2CaV2(P2O9)2,0.016837543379625508
mp-1035198,Mg14ZnCoO16,0.011775287812500146
mp-686482,K2YTi(PO4)3,0.003978990460526077
mp-698494,K2BiH5(CO2)5,0.1183069059782591
mp-767655,Li6MnNi3(PO4)6,0.08925672578125354
mp-998535,InPbCl3,0.01840304299999973
mp-542836,Rb2SrV4O12,0.0
mp-6809,CaSiSnO5,0.008522679374999065
mp-1094087,Sr10Fe10O29,0.004742425714233001
mp-555516,H5(NO)3,0.2813393108941824
mp-863259,Pm2S3,0.0
mp-770224,Li4Cr3FeO8,0.09043001250000238
mp-977148,LiBeH3,0.00506715183333295
mp-973884,Ni3Hg,0.2242919825000005
mp-781961,LiCrPH2O5,0.08130902989062871
mp-769271,Sr4Ta2O9,0.0
mp-1031868,BaCaMg6O8,0.34359818312500057
mp-775746,Li2U(WO5)2,0.01803128416666766
mp-998363,NiBiO3,0.2029059665000021
mp-1097025,GaFe2BO5,0.0
mp-557662,Ca2Mg5Si8(O11F)2,0.0
mp-765872,LiMnPO4,0.06689990678571434
mp-764009,Mn6O7F5,0.06242055381946088
mp-16097,CeSc3(BO3)4,0.0
mp-777235,V5CuO12,0.03150603472221825
mp-644389,Li2H2Pd,0.0
mp-849703,Co6O5F7,0.09382932076388784
mp-772022,Sr2LaI7,0.07905707850000042
mp-18707,Mg3Pt,0.0
mp-761568,Rb2CoO3,0.0280097037499889
mp-561240,Mo5O14,0.00864505225563583
mp-574176,Ba(InAu)2,0.0
mp-1019734,EuBN2,0.003670114166666849
mp-30466,YbBiPd,0.0
mp-1037799,Mg30TiFeO32,0.05489576902343797
mp-1030162,TeMoWSe2S,0.06370528249999996
mp-1027951,Mg14TiZn,0.06589284812500007
mp-775341,Na4CrH8SO7,0.019383079632935285
mp-775023,Li2Fe3SnO8,0.01635592285714349
mp-531826,Li2PtO3,0.0
mp-972071,V3Mo,0.0
mp-776785,Li2Fe(BO3)2,0.13585641153409256
mp-761383,Li2CrP2O7,0.06020089333333267
mp-1093687,Ti2OsRh,3.6917618925
mp-680578,Sm4Si3Pd4,0.0
mp-567191,CaAlSi,0.0
mp-1101,TmAs,0.0
mp-767746,Li12Mn2Fe3O16,0.09200294931818044
mp-865253,LuMgPd2,0.0
mp-558981,SrBe2(BO3)2,0.0079793072726968
mp-757458,Tl8Os8O27,0.006609226185148921
mp-553874,Ba2LaAg5S6,0.0
mp-762532,Fe2C2O7,0.08911384090908747
mp-1072589,Cu2GeS3,0.01929148083333221
mp-29981,Nb7(BC)4,0.0
mp-768416,BaYBr5,0.08500052250000234
mp-12672,Yb2SO2,0.5332961022777765
mp-861668,LiV2OF5,0.06170276916666938
mp-1035377,CsMg14GaO16,0.2945685062239596
mp-1079800,La2Co2Se2O3,0.10731908277777792
mp-13039,Tm2C(NO)2,0.0
mp-23560,Ge3(BiO3)4,0.0
mp-18807,V2Zn2O7,0.032445805454546665
mp-1034512,SrMg14CdO16,0.12173420156250092
mp-23223,TiI3,0.005107829374999985
mp-1022617,Mg6ZrCu,0.12726485781249908
mp-772368,Li2TiFe3O8,0.038508148705355794
mp-2696,MgAg,0.0
mvc-4198,Ca3Ti2(GeO4)3,0.06348585337500179
mp-870,TlN3,0.04464817821500056
mp-1033290,HfMg6BO7,0.7055374007499989
mp-18849,Fe2P2O7,0.0017997263636253535
mp-1035457,NaMg14FeO16,0.03842626406250016
mp-11791,CeCuSe2,0.025608976562500274
mp-28442,TlAs5S8,0.005768639910712636
mp-776484,Li6Sn3P8O29,0.02510849007245941
mp-1028207,Mg14AlFe,0.1509666525000002
mp-780910,Li2Mn3(BO3)3,0.049875605833314296
mp-1024070,Na4Zn3S5,0.0013557520833176186
mp-767934,Li3Co13O16,0.07236062562499868
mp-1080358,CeSe2,0.5794205433333346
mp-775612,Na4MnO3,0.02955180450000228
mp-861552,Li3Mn(PO4)2,0.037354714345241284
mp-10302,Ba2ScIrO6,0.0
mp-761311,Li4MnSi2O7,0.011574934285715877
mvc-7947,MgCoAs2O7,0.01104701958332921
mp-693620,KCa2Be2Al(Si2O5)6,0.0
mp-32106,LiMoPO5,0.04382233367192878
mp-1098348,NaMg30TiO32,0.02297729469618126
mp-579605,Cs2KEuCl6,0.0
mp-1028349,Mg14NbNi,0.12647609749999988
mp-10033,NbS2,0.0
mp-685267,Cr3GaS6,0.0355624066666671
mp-745114,Cd4NiH20(ClO)10,0.01738763777777752
mp-758329,YbCO3,0.05023600249999749
mp-774181,NaLi5Mn2P2(CO7)2,0.04888295493589734
mp-772014,NbCo3(PO4)4,0.06538154416666409
mvc-4519,SiNiO4,0.5206290598611067
mp-777778,Li2VO2F,0.06940908416666414
mp-694930,Na2FeSn(PO4)3,0.013052920820800118
mp-16871,K2ZrGe2O7,0.0
mp-766797,Li3Mn2(CoO4)2,0.08568326507738089
mp-504871,SrV2CuO7,0.016556942897733684
mp-752638,LiCuCO3,0.042893349791667916
mp-735568,Na4Co3P4(H3O4)6,0.012298191320750721
mp-985570,SiO2,0.009839680416666495
mp-8770,Cs2CoSe2,0.030681057055554906
mp-20817,GePtSe,0.0
mp-761530,Fe(CoO3)2,0.10493236687499152
mp-545746,KSO4,0.16644798406249972
mp-720519,KCd2H8C10N15O4,0.24250418754272474
mp-40286,NaLiLa2Ti4O12,0.0374843276250143
mp-540340,Cr2(PO4)3,0.05402699069853156
mp-20750,Tb3SnC,1.783282873166666
mp-689931,V(PO3)4,0.012484760588233891
mp-1099812,Ba2Sr2CoCu3O10,0.09886553966049584
mp-730823,P6H24N6O19,0.09063362180448033
mp-773966,K2W3O10,0.00539372650000125
mp-778251,Li4TiCo2Ni3(PO4)6,0.08478850540626492
mp-625526,Te(HO2)2,0.014371931428573069
mp-770635,LiNiO2,0.016616691874999034
mp-767218,Li9(NbS2)14,0.0
mp-764796,Li3Fe8(BO3)8,0.0695529973691702
mp-1067475,TiNi,0.07529706249999979
mp-546546,SiO2,0.030325098888885908
mp-3442,CaTiO3,0.018514506249998064
mp-19546,Zr2Mo(PO6)2,0.0
mp-1073819,MgSi,0.2277221825
mp-677337,H12C4S3(N3Cl2)2,0.29255732074000296
mp-1221,V3Ge,0.0
mp-1029730,Ca4HfN4,0.0
mp-770714,LiAlFeO4,0.09347672026785593
mp-21834,Nd6Fe13Sn,0.0
mp-1027,HfRh3,0.0
mp-768556,Na3BSbPO7,0.04573024271291271
mp-775439,Li2Cr3P5O18,0.09765290821427984
mp-762788,LiMnP2O7,0.029770546590909493
mp-780858,Fe4O7F,0.14409604171874155
mp-770950,LiLa4MnO8,0.03595313107143383
mp-776800,Li4Ti3Nb2Co3O16,0.021934387678593133
mp-541087,CuAs4(H5O8)2,0.005620646397865414
mp-108,U,0.2800333500000001
mp-752701,LiCuF3,0.021782828499998352
mp-1096609,Sc2TlCr,2.5685702312500003
mp-569161,K2La6OsI12,0.0019039851190481016
mp-768314,BiB2O5,0.08020352713541445
mp-773196,LiCoCSO7,0.06209021806817816
mp-20550,Ce3PbC,2.071476646999999
mp-23175,Nd4Bi3,0.0
mp-568983,MnSbRh,0.32554612083333456
mp-27519,SeO3,0.019213741093750517
mp-1027969,YHfMg14,0.06421406093750015
mp-569619,BaI2,4.816375000071815e-05
mp-8948,CeAsPd,0.0
mp-31773,Li2Fe2(MoO4)3,0.00013459554093664394
mp-615789,Ba2(CuO2)3,0.0
mp-1028743,TeW2Se2S,0.05019724895833466
mp-608516,CsGaCl4,0.0
mp-705296,Li2CoP2O7,0.03579959121527132
mp-12838,Tm3FeSi3,0.0
mp-567519,NpBr3,0.0
mp-553903,KNa9In2O8,0.012912102156249716
mp-755483,Al2O3,0.09112761800000067
mp-1070314,Eu(CdAs)2,0.0
mp-18812,NdVO4,0.0
mp-976971,NaPd3,0.0005657762499993169
mp-689966,Mn(PO3)3,0.0618730819230775
mp-561973,K(TeO3)2,0.0
mp-621689,KRb2NiF6,0.01411225699999985
mp-780134,Li4Ti3V2Cr3O16,0.0260025190327422
mp-1038482,Mg30BCO32,0.16469175704101513
mp-19560,KNa2Li3Fe2(Si2O5)6,0.0
mp-766009,Y11Tm5O24,0.002306411453123048
mp-555465,La10Si8O3,0.03328519714285605
mp-1026504,HfMg14Cr,0.11819475546875058
mp-772219,BaLaI5,0.08023244107142835
mp-541627,K3Fe(CN)6,0.12620666500000066
mp-2330,Nb2Se3,0.016964551999999244
mp-665231,MoBr3,0.0006381606249998839
mp-555250,AgH9C7S2(OF)4,0.2520482667625634
mp-780812,Fe10O9F11,0.08393411400000073
mp-1025472,NpTe3,0.2712142649999993
mp-560815,AlPO4,0.029322469814819563
mp-27573,NaSb3F10,0.0
mp-704327,Mn7(PbO5)3,0.003644918275010234
mp-554029,NaMg4V3O12,0.0
mp-20123,Te2Au,0.0
mp-569319,Mo5As4,0.19788745444444444
mp-999203,ScC,0.5909087829838686
mp-17770,CsPr(PO3)4,0.0
mp-762156,Li4Mn3Co3(NiO8)2,0.03627220517856866
mp-22312,Nb4FeSi,0.0437865813888898
mp-1034209,HfMg14SnO16,0.30163432929687506
mp-4562,La(GeRh)2,0.0
mp-690667,Ag7NO8,0.946233399375
mp-705749,Fe14Ni11O32,0.19789664517542785
mp-862892,PmCdHg2,0.0
mp-566709,TiFe2O5,0.03653479062499977
mp-8760,Dy5P12Ru19,0.0
mp-568106,Mg41Al67,0.07829873599658832
mp-684726,La39Se56,0.01753338494736756
mp-540872,AgSbO3,0.005445568999999928
mp-10952,Cu2HgGeS4,0.0
mp-753995,YTmO3,0.08822552662499739
mp-4510,DyNiSb,0.0
mp-768360,Li3(FeS2)2,0.1869200436111118
mp-1079029,Al2S3,0.03972626633333487
mp-31076,Tl2TeBr6,0.0
mp-20164,Mn3GaC,2.030897924
mp-505341,Ni2W3N,0.0
mp-965,TbB2,0.0
mp-1021376,CsKMg6,0.30623962625
mp-22993,AgClO4,0.0
mp-684934,U5O11,0.11018278249999902
mp-570963,TaCr2,0.010757258333333295
mp-569895,EuCl3,0.0
mp-677548,Na(NO2)2,0.7551916314966745
mp-1030201,Te2MoWSeS,0.06004581916666664
mp-27714,H3OF,0.0
mp-23305,EuI2,0.0
mp-998968,TiMo,0.79832386861111
mp-570143,Gd2Zn17,0.0
mp-755821,Li5Cu(PO4)2,0.02867268171875015
mp-638705,FeTeS2N2Cl5,0.14096084876513348
mp-755585,LiAgO2,0.28478685874999865
mp-22891,Bi2O3,0.35998215949999945
mp-1039826,RbNaMg30O31,0.11733290196428656
mp-975663,Pr(CoB)4,0.0
mp-1026643,HfMg14Sn,0.0669952859375007
mp-1017288,NaMg6Ga,0.07533612999999995
mp-2743,LiPd,0.012146414999999687
mp-1017207,Mg6CdC,0.4673198765625002
mp-24589,K2HBrO,0.0
mp-4255,Ba(CuS)2,0.016978384999995374
mp-680395,Li3As7,9.054106249983819e-05
mp-759776,LiCuPO4,0.10276557577382216
mp-755546,Na6BeO4,0.034962386136359484
mp-1028290,RbMg14Sn,0.12854090695312514
mp-864628,Pm2SnPd,0.0
mp-31303,Pr4Se3N2,0.0
mp-605175,FeH12Pt(ClO)6,0.0
mp-754693,Lu(BiO2)3,0.036736142812500816
mp-764687,LiVOF3,0.034650789206357224
mp-1097136,Y2TlIn,2.4012047899999995
mp-560425,Sr2Cu(BO3)2,0.03605909670454732
mp-961654,TaMnAs,0.7770657883333314
mp-757765,Li3NbP3O11,0.11022559812503196
mp-769543,Li3Mn2(SiO4)2,0.08319201591665147
mvc-9910,CaLaMnCrO6,0.010982631083336969
mvc-10016,LaVCrO6,0.2307200650000069
mp-1068377,CsEuCl3,0.0
mp-777099,LiMnOF2,0.0218612502500104
mp-540986,Nd2Ni7P4,0.0
mp-1034829,HfMg14CoO16,0.16619088507812485
mp-1099222,CsMg14CrO16,0.2562700720312412
mp-760829,Na(CuO)2,0.009026298000012643
mp-756799,Ti2Nb2(CuO4)3,0.07776945947368398
mp-982244,Pa3H,0.6674290558333329
mp-776890,Rb2O,0.013824756666666715
mp-554207,TaBi4BrO8,0.0
mp-10068,Ce2MnN3,0.0
mp-510766,MnBO3,0.22018836326041927
mp-540949,Ba3SrNb2O9,0.0
mp-1037374,Mg30ZnSnO32,0.05406146718750016
mp-12631,SrTcO3,0.006774460999998233
mp-999135,TaCuN2,0.3867945989683328
mp-571331,Tb4Ga12Pd,0.0
mp-18981,Sr2CaWO6,0.05229079899998457
mp-510357,La4B4Br5,0.0
mp-769526,Li7MgNi7O16,0.05479199717741602
mp-1096160,Sr2InHg,1.4452156024999998
mp-18460,K2Si6GeO15,0.0
mp-569869,Sr(AlCl4)2,0.0013541915909103253
mp-766404,Ba8Cu8O19,0.03718370342856403
mvc-11686,SnO2,0.15339968333333331
mp-504371,LiNi6P7O24,0.00945447394735055
mp-1096410,LaAg2Hg,1.6903837599999996
mp-510728,MnCoH18(CN2)6,0.07205223198631573
mp-1094379,Mg4Ti3,0.1783946371428593
mp-646605,SrNi2Te3(ClO4)2,0.0
mp-25885,LiCuPO4,0.05750891464287111
mp-2880,LuB2Os3,0.046828370625002336
mp-29825,K2Si2O5,0.0
mp-1069296,Eu3InO,0.0
mp-862860,AcInAu2,0.0
mp-4189,Dy6FeSb2,0.0
mp-30413,TbPbAu,0.0
mp-560506,NaTiP2O7,0.0633542026255256
mp-761485,Li2Mn(SiO3)2,0.07225028984847626
mp-773906,KNaZrSi3H4O11,0.0
mp-559835,BaTaF7,0.0
mp-771594,Na3VPCO7,0.03923294655047816
mp-1075790,Mg3Si2,0.15914826716666666
mp-565232,KCr2AgO7,0.00450731681817107
mp-19108,Ca2MnWO6,0.0
mp-849516,Li4Mn5(CuO6)2,0.07497157021739564
mp-1093729,HfPtAu2,2.798520447083335
mp-579356,Zr(WO4)2,0.055779347045454834
mp-31986,Li3Mn2P5O16,0.014366071217970957
mp-1094458,Mg2Zn,0.050815736100000786
mp-762748,Li6VNi3(PO4)6,0.08033775804687071
mp-761981,Li2FeCO4,0.07760910593750392
mp-568924,PrB2Rh2C,0.0
mp-867202,Sr,0.005286380000000035
mp-4733,ThTi2O6,0.015777116666667368
mp-9463,ZrGeSb,0.0
mvc-16057,Sr4CaFe2(SO3)2,0.05057927033333076
mp-972752,Si3As,0.6086949608333336
mp-1025446,CeGa2Ni,0.0
mp-1098639,Mg30TiAlO32,0.05983490634375066
mvc-7237,BaAlCuBiO5,0.4565047109722205
mp-1098521,RbMg30CO32,0.22422103854492104
mp-2921,Gd3Ga5O12,0.0
mp-705614,Sr5Fe3F19,0.06440064430556003
mp-631294,HfMoSe,1.4022573770666655
mp-704362,CoSiC4Cl3O4,0.3586807384134625
mp-1006574,Rb(Zr3Te4)4,0.0
mp-1096239,CaTlHg2,1.1266334916666667
mp-7811,SrSO4,0.21694916249999974
mp-1027815,KMg14Co,0.19470859148437514
mp-743987,Ti3V2O9,0.3200869895535963
mp-1031273,KMg6BO7,0.7745204560000003
mp-696136,Li10Sn(PO6)2,0.1406091870000008
mp-3285,Na2Ta4O11,0.0
mp-581285,LiGd6B3O14,0.0
mvc-15308,Ca2CrN2,0.08419267066666603
mp-759849,Li2Ti6Zn3O16,0.0
mp-763322,Li4CoO4,0.05173932923148517
mp-15868,Co4SnSb12,0.05499162264705948
mp-643841,KV2P2H4O13,0.11376850332386468
mp-767279,Li2DyPCO7,0.09409996541666477
mp-777474,LiFeF4,0.04438053351852833
mp-1095024,Ti4H5,0.011337714999999804
mvc-6935,Ca(MoO2)2,0.27680750500000073
mp-771723,Mn3Co5O16,0.0544687885416657
mp-936,Hg4Pt,0.0
mp-772055,Li6Ti2O7,0.011646225333339366
mp-2085,PrCo2,0.02350630279761834
mp-696961,BeH4NF3,0.0224089487268504
mp-3834,BaZrO3,0.0
mp-707376,NaNb14O36,0.014221439056370857
mp-3915,BaHgO2,0.0
mp-705338,FeCoPO4F,0.10848286749999936
mp-1062758,K2S,6.144999999957436e-05
mp-1020599,Na5B(SO4)4,0.0
mp-34322,Dy2Ti2O7,0.01809206363634175
mp-560591,NaTi2Al5O12,0.0
mp-867280,Be2IrPt,0.0
mp-764821,V6O11F,0.02569863388887584
mp-762863,Fe3OF5,0.04790418222222748
mp-12466,Fe(PdSe)2,0.0040168682903223285
mp-13801,Tl2Pt2O7,0.0
mp-766937,LiVF6,0.02207142187499933
mp-861954,LiTaRu2,0.0
mp-559710,NaInAs2O7,0.0
mp-11476,HoIr,0.0
mp-21661,YSi3Ni5,0.0
mp-14680,Sr2Ga2S5,0.012357444722226774
mp-557698,K4Na2TeO6,0.0
mp-504564,Si(PbS2)2,0.0
mp-561290,K2BiF5,0.0
mp-771722,Li4Nb3V3(NiO8)2,0.13988953674108284
mp-10038,Er3AlC,1.873261388
mp-615489,Mn3Nb6O11,0.0
mp-10971,LiErO2,0.002633136250000057
mp-1099300,Mg6SnB,0.424040164375
mp-14389,Na3AlP8O23,0.0
mp-683652,Mn2InC10IO10,0.5661112853124983
mp-28470,Ta7(Te12I5)2,0.002068380265922265
mp-1095897,Ti2ZnIr,3.019481840416665
mp-27927,NbAlO4,0.0
mp-2566,PuSb,0.0
mp-1056996,VN,0.3295112150000001
mp-23370,CuW3Br7,0.0
mp-641754,Ca3SiO5,0.019748056296293733
mp-1016660,HfMg6Mo,0.2162040968750003
mvc-3906,Ca3V2(SiO4)3,0.031154068562496917
mp-16433,Ca2Ga2O5,0.03333695425925942
mvc-2456,Ba2ZnCuNi2F14,0.03613848062499958
mp-850882,Li2Cr(PO3)5,0.09827762518116057
mp-1096350,FeTc2Ge,3.469381878333333
mp-972493,Sm2MgRu,0.00916679843749968
mp-815,GaNi3,0.0
mp-755070,CeSmO2,0.059229000937500935
mp-28608,Ga3Te3I,0.0
mp-1098465,HfMg30SiO32,0.14649784972656565
mp-30325,In2(Se2O5)3,0.0
mp-567338,Pr(SiPt)2,0.0
mvc-10619,V3P3O13,0.02858175500000115
mp-560558,CsCdAuS2,0.0006173320000004702
mp-24402,CaAlSiHO5,0.004954394999996836
mp-981,SrF2,0.0
mp-570953,HoGa3,0.0
mp-2332,Ho2C3,0.04668781350000284
mp-30564,ThCo,0.0
mp-504621,Eu3Sn2S7,0.021782436666665458
mp-707772,TeP2H16N2O13,0.0440608862523586
mp-6312,Sr2CuCO5,0.036405975555563685
mp-685158,Cu16I19,0.015026658285715476
mvc-132,Ba2Mg3Tl2(NiO3)4,0.3016320050000001
mp-5403,Rb2TiO3,0.0
mp-6940,U2IrC2,0.0
mvc-642,V(WO4)2,0.11073935590908944
mp-540011,Li2Ni(PO3)5,0.044533250570666816
mp-567555,Pr5C2Cl9,0.003722090624998841
mp-680421,Ce6S4BrN3,0.0
mp-1079775,KCrO2,0.00016767000000150745
mp-13379,DyZnRh,0.0
mp-1094500,MgZn2,0.11697125027777845
mp-672680,Zr6Co16Si7,0.0
mp-10440,Mg(P2Rh3)2,0.016492431363634985
mp-30839,Th3Pd5,0.2825705290624993
mp-864961,Be2PdPt,0.0
mp-19530,Rb2TeMo2(PO7)2,0.0
mp-558011,Cd2H2SO6,0.0
mp-554157,KNaZnP2O7,0.0
mvc-8012,CaFeAs2O7,0.012551646900821998
mp-27147,Rb3BiBr6,0.0
mvc-1211,La2WO6,0.13947807361111053
mp-775796,Li2Ti3NbO8,0.0823026505357376
mp-40630,CaPrMn2O6,0.0016344939999921593
mp-1027147,MoW(SeS)2,0.0315414675000012
mp-1022946,Mg6MnCd,0.11554576875000012
mp-16457,Tl2B4O7,0.0
mp-735521,MnH6(OF)3,0.0
mp-22441,Ba2MgReO6,0.0
mp-982597,Pa3W,0.30626899499999816
mp-566937,TlCu2P2O7,0.0
mp-1066862,VFeCoSb,0.17820235773147974
mp-1097757,CrN2,0.5355471928177753
mp-1022983,Mg6MnNb,0.26983313343749993
mp-973792,Pa3Tl,0.18102845625
mp-1040425,C,0.002969647499998729
mp-977407,Hf2ReRh,0.0
mp-561260,Na2CaP2O7,0.0
mp-2790,Ni12P5,0.0
mp-9368,RbTmS2,0.0
mp-1249,MgF2,0.0
mp-774433,LiMnPO5,0.036765517369788725
mp-1026438,Mg14CdSb,0.052852075312500135
mp-6160,Rb2PO3F,0.0
mp-1096633,K2NaHg,0.540403119921875
mvc-8436,ZnCuNiP2O9,0.10878063991071407
mp-1064307,Te,0.1214544675
mp-635713,TiZnO3,0.0987160901666666
mp-11465,Mg5Hg3,0.0038690587500000975
mp-772243,La4MnO8,0.08347099641826894
mvc-15446,Y(CoO2)2,0.26246758142858084
mp-767710,Li2VP2O7,0.09728691942708334
mp-1022123,Mg6CuSi,0.14922038812500027
mp-16225,Y3Si3Rh,0.0
mp-771323,Tm2Ti2O7,0.0
mp-979288,Ta2NbRh,0.0
mp-761998,Li4Ti2V3Co3O16,0.07709427543153867
mp-863933,La16Mn15O48,0.00516244955696088
mvc-424,Nb2Zn2CrO8,0.043807020641022376
mp-675680,Sr(SbO3)2,0.14558737361111085
mp-571103,In5AgSe8,0.0
mvc-16173,Y3CuSiSe7,0.0
mp-13963,HfSiTe,0.0
mp-780338,LiCr(SO4)2,0.02228452395833891
mp-775386,Li4Mn3Fe2Co3O16,0.024555725714281884
mp-510721,CaCoAsHO5,0.0
mp-1079679,K2CdSn,0.0
mp-565829,Cr2HgO7,0.014192583208333609
mp-17997,BaTi2(P2O7)2,0.04225943047675074
mp-773040,As5Pb3S10,0.08099873861111284
mp-770484,LiMn2(SO4)3,0.0005734506249925888
mp-13303,ErSnAu,0.04685067166666634
mvc-14286,CaTiF4,0.19080815462963496
mp-777294,Bi2(SO4)3,0.03238834169117588
mp-558636,CaAl2O4,0.01816148819047303
mp-569823,YInAg2,0.0
mp-24103,CuH12Br4(NO)2,0.028304185476190288
mp-754745,Na2SnO3,0.0005151333333355269